TITLE     = "Surface mesh and solution"
VARIABLES = "x"
"y"
"z"
"cfx"
"Cp"
ZONE T="Slice: Y=-0.001"
STRANDID=0, SOLUTIONTIME=0
Nodes=438, Elements=437, ZONETYPE=FELineSeg
DATAPACKING=POINT
DT=(DOUBLE DOUBLE DOUBLE DOUBLE DOUBLE )
0.1105894400	-0.0009999500	0.0498864800	0.0023453439	-0.0957947300
0.1283509000	-0.0009999500	0.0478640910	0.0024137263	-0.0804397840
0.1324332500	-0.0009999500	0.0473919360	0.0024424565	-0.0773499310
0.1367040000	-0.0009999500	0.0468733240	0.0024213094	-0.0724852610
0.1525318900	-0.0009999500	0.0449472780	0.0022256720	-0.0565960930
0.1648541100	-0.0009999500	0.0433723850	0.0021113710	-0.0439018830
0.1713143600	-0.0009999500	0.0425483580	0.0020219692	-0.0379412810
0.1763383900	-0.0009999500	0.0418771240	0.0020019871	-0.0330396150
0.1914348800	-0.0009999500	0.0398615560	0.0019240931	-0.0200881830
0.2044763100	-0.0009999500	0.0380425680	0.0018510302	-0.0095000239
0.2170828400	-0.0009999500	0.0362726710	0.0018370613	0.0007532429
0.2311166500	-0.0009999500	0.0342059060	0.0018202986	0.0110592160
0.2440618100	-0.0009999500	0.0323147850	0.0017505243	0.0217629080
0.2615229500	-0.0009999500	0.0296624080	0.0017440251	0.0353595390
0.2655688500	-0.0009999500	0.0290430770	0.0017156213	0.0387629720
0.2680073100	-0.0009999500	0.0286590720	0.0017294215	0.0410648060
0.2851646800	-0.0009999500	0.0259654150	0.0016293336	0.0585909040
0.2902917600	-0.0009999500	0.0251507000	0.0016293873	0.0618399120
0.3052528800	-0.0009999500	0.0227321400	0.0015836123	0.0739181410
0.3066334700	-0.0009999500	0.0225086230	0.0015673026	0.0753027050
0.3235958200	-0.0009999500	0.0197018310	0.0013842110	0.0913896710
0.3293988700	-0.0009999500	0.0187382310	0.0013693807	0.0954744150
0.3528093100	-0.0009999500	0.0147460030	0.0012770099	0.1132848300
0.3614829200	-0.0009999500	0.0132621140	0.0012356053	0.1202996600
0.3700018800	-0.0009999500	0.0117726780	0.0012262070	0.1285406500
0.3939641100	-0.0009999500	0.0075315237	0.0011369204	0.1486702900
0.4129748000	-0.0009999500	0.0040774015	0.0010947246	0.1618978500
0.4374414100	-0.0009999500	-0.0004008294	0.0009722140	0.1802629100
0.4688942400	-0.0009999500	-0.0063449680	0.0009283263	0.2042208300
0.4791127700	-0.0009999500	-0.0082844654	0.0009227663	0.2118377400
0.4881261900	-0.0009999500	-0.0100502390	0.0009323317	0.2172604700
0.5183335500	-0.0009999500	-0.0159420500	0.0008641784	0.2380048300
0.5380544100	-0.0009999500	-0.0198887360	0.0008091332	0.2543015500
0.5458551000	-0.0009999500	-0.0214492940	0.0007976927	0.2599924800
0.5644848900	-0.0009999500	-0.0252599770	0.0007455101	0.2732102600
0.5874732100	-0.0009999500	-0.0299951940	0.0007404816	0.2872662800
0.6001532700	-0.0009999500	-0.0326577240	0.0007062157	0.2984529100
0.6100567000	-0.0009999500	-0.0347410250	0.0006428899	0.3082805300
0.6152464200	-0.0009999500	-0.0358480700	0.0006208018	0.3122825000
0.6376114500	-0.0009999500	-0.0406423170	0.0005010289	0.3299554000
0.6471481900	-0.0009999500	-0.0427134970	0.0004661071	0.3371566800
0.6700145600	-0.0009999500	-0.0477379860	0.0004288618	0.3551232800
0.6709584000	-0.0009999500	-0.0479459020	0.0004281648	0.3559092600
0.6713817700	-0.0009999500	-0.0480393580	0.0004260365	0.3562600600
0.6720510100	-0.0009999500	-0.0481892860	0.0004231618	0.3569256400
0.6908004300	-0.0009999500	-0.0523927730	0.0003427824	0.3749604500
0.6982093500	-0.0009999500	-0.0540686030	0.0003370597	0.3835389000
0.7069879800	-0.0009999500	-0.0560695190	0.0002975487	0.3942645200
0.7110131400	-0.0009999500	-0.0569907910	0.0002387478	0.3990628700
0.7180645500	-0.0009999500	-0.0586042630	0.0001935047	0.4070484600
0.7243883600	-0.0009999500	-0.0600628740	0.0002107194	0.4143340300
0.7286168300	-0.0009999500	-0.0610444170	0.0001835518	0.4190326900
0.7344796100	-0.0009999500	-0.0624053330	0.0002540278	0.4284355600
0.7355908200	-0.0009999500	-0.0626659540	0.0002089042	0.4304783600
0.7397073500	-0.0009999500	-0.0636254620	0.0001655696	0.4383938900
0.7398859300	-0.0009999500	-0.0636673420	0.0001589339	0.4387272600
0.7432941800	-0.0009999500	-0.0644639800	0.0001054189	0.4484366200
0.7433586100	-0.0009999500	-0.0644791720	0.0001025161	0.4485856900
0.7433899000	-0.0009999500	-0.0644865260	0.0001016990	0.4486660100
0.7449726500	-0.0009999500	-0.0648571700	0.0000260284	0.4535440200
0.7460962500	-0.0009999500	-0.0651205410	0.0000366030	0.4568942500
0.7461067400	-0.0009999500	-0.0651230070	0.0000358376	0.4569577000
0.7468395800	-0.0009999500	-0.0652948990	-0.0000376994	0.4604730000
0.7468442900	-0.0009999500	-0.0652960090	-0.0000387555	0.4604681700
0.7470343700	-0.0009999500	-0.0653406010	-0.0000176474	0.4644950900
0.7470349100	-0.0009999500	-0.0653407350	-0.0000176660	0.4644887400
0.7470925500	-0.0009999500	-0.0653542580	-0.0000145927	0.4659256300
0.7471263400	-0.0009999500	-0.0653621850	0.0000726708	0.4670948100
0.7471264000	-0.0009999500	-0.0653622080	0.0000727361	0.4670877200
0.7471264600	-0.0009999500	-0.0653622150	0.0000732936	0.4670921300
0.7471374300	-0.0009999500	-0.0653647930	0.0000051153	0.4666698900
0.7471460100	-0.0009999500	-0.0653668050	0.0001883927	0.4673425600
0.7471384400	-0.0009999500	-0.0653672370	0.0002243283	0.4678781600
0.7471222900	-0.0009999500	-0.0653681530	0.0001801297	0.4676432300
0.7471221100	-0.0009999500	-0.0653681610	0.0001804295	0.4676446900
0.7470814600	-0.0009999500	-0.0653704630	0.0001209770	0.4669188300
0.7470809800	-0.0009999500	-0.0653704930	0.0001206529	0.4669173700
0.7470011100	-0.0009999500	-0.0653750080	0.0001106370	0.4659722700
0.7470000400	-0.0009999500	-0.0653750670	0.0001113540	0.4659648800
0.7468181300	-0.0009999500	-0.0653853570	0.0000899383	0.4629672800
0.7468115700	-0.0009999500	-0.0653857370	0.0000919448	0.4629208700
0.7461705200	-0.0009999500	-0.0654219690	0.0001166916	0.4581121500
0.7450496600	-0.0009999500	-0.0654851870	0.0002242695	0.4542393100
0.7450333200	-0.0009999500	-0.0654861110	0.0002261839	0.4541646200
0.7427356200	-0.0009999500	-0.0656149690	0.0003172562	0.4454705700
0.7427129100	-0.0009999500	-0.0656162570	0.0003185787	0.4454019700
0.7426602200	-0.0009999500	-0.0656192380	0.0003222747	0.4452273800
0.7387014600	-0.0009999500	-0.0658391040	0.0002992008	0.4325542700
0.7385965000	-0.0009999500	-0.0658449460	0.0003027906	0.4322857900
0.7311674400	-0.0009999500	-0.0662503170	0.0004028569	0.4202006200
0.7310128800	-0.0009999500	-0.0662586990	0.0004002815	0.4199522700
0.7234195500	-0.0009999500	-0.0666633170	0.0004694101	0.4096866800
0.7232568300	-0.0009999500	-0.0666719530	0.0004723456	0.4094158400
0.7178731000	-0.0009999500	-0.0669529740	0.0003180862	0.3976883900
0.7068461200	-0.0009999500	-0.0675134660	0.0005133666	0.3871705200
0.7065845100	-0.0009999500	-0.0675267730	0.0005168821	0.3869152400
0.6965714100	-0.0009999500	-0.0680183320	0.0005606619	0.3767961000
0.6963824000	-0.0009999500	-0.0680275260	0.0005608477	0.3765512100
0.6894677300	-0.0009999500	-0.0683573930	0.0005606998	0.3686175600
0.6891651200	-0.0009999500	-0.0683717800	0.0005730060	0.3682860400
0.6771295700	-0.0009999500	-0.0689272660	0.0005103160	0.3575489200
0.6766772900	-0.0009999500	-0.0689476060	0.0005062903	0.3572089100
0.6686499700	-0.0009999500	-0.0693049800	0.0006698246	0.3506746300
0.6610909100	-0.0009999500	-0.0696320460	0.0008007955	0.3455359300
0.6608602400	-0.0009999500	-0.0696419330	0.0007954488	0.3453710400
0.6607501500	-0.0009999500	-0.0696465820	0.0007956074	0.3452723600
0.6518018800	-0.0009999500	-0.0700221060	0.0007084503	0.3382148700
0.6516755800	-0.0009999500	-0.0700272550	0.0007069460	0.3381248400
0.6428915900	-0.0009999500	-0.0703837870	0.0008194184	0.3325024500
0.6427271400	-0.0009999500	-0.0703902240	0.0008222266	0.3323997900
0.6325711000	-0.0009999500	-0.0707876240	0.0004924341	0.3264441800
0.6213940400	-0.0009999500	-0.0712067110	0.0008507026	0.3193943500
0.6212500300	-0.0009999500	-0.0712121050	0.0008476384	0.3193034200
0.6211618200	-0.0009999500	-0.0712153020	0.0008503172	0.3192582400
0.6100130700	-0.0009999500	-0.0716144290	0.0007518482	0.3130646600
0.6099170400	-0.0009999500	-0.0716178420	0.0007481561	0.3129973700
0.6098047500	-0.0009999500	-0.0716216860	0.0007522994	0.3129331500
0.5947081400	-0.0009999500	-0.0721323490	0.0007740824	0.3049905300
0.5945115700	-0.0009999500	-0.0721387340	0.0007769057	0.3048948300
0.5838553300	-0.0009999500	-0.0724787270	0.0007778247	0.2992825500
0.5836185800	-0.0009999500	-0.0724859540	0.0007795160	0.2991743100
0.5739376500	-0.0009999500	-0.0727801920	0.0005608129	0.2946900400
0.5650991200	-0.0009999500	-0.0730366930	0.0008884710	0.2898525000
0.5649188200	-0.0009999500	-0.0730420350	0.0008826977	0.2897453600
0.5647634900	-0.0009999500	-0.0730463120	0.0008888783	0.2896782500
0.5567091100	-0.0009999500	-0.0732700300	0.0006689707	0.2859253300
0.5483250000	-0.0009999500	-0.0734928250	0.0010172687	0.2816956600
0.5481989400	-0.0009999500	-0.0734962450	0.0010106708	0.2816267300
0.5480825900	-0.0009999500	-0.0734991360	0.0010141520	0.2815886100
0.5394745500	-0.0009999500	-0.0737172140	0.0006229814	0.2783646300
0.5304124400	-0.0009999500	-0.0739351730	0.0010140333	0.2751205000
0.5303276800	-0.0009999500	-0.0739372600	0.0010118684	0.2750825900
0.5302453000	-0.0009999500	-0.0739391520	0.0010133036	0.2750482300
0.5210372800	-0.0009999500	-0.0741484610	0.0008409294	0.2710844900
0.5208905300	-0.0009999500	-0.0741516050	0.0008467651	0.2710097700
0.5141546100	-0.0009999500	-0.0742969510	0.0008924393	0.2673257000
0.5140194300	-0.0009999500	-0.0742997150	0.0008945311	0.2672832000
0.5050345700	-0.0009999500	-0.0744833570	0.0008588839	0.2632712700
0.5049015900	-0.0009999500	-0.0744859500	0.0008565264	0.2632136900
0.4931963100	-0.0009999500	-0.0747076500	0.0010521984	0.2595085500
0.4930795100	-0.0009999500	-0.0747097880	0.0010520192	0.2594587800
0.4928919400	-0.0009999500	-0.0747130070	0.0010535948	0.2594085000
0.4842086100	-0.0009999500	-0.0748646260	0.0005676763	0.2569891800
0.4739663300	-0.0009999500	-0.0750293510	0.0009836102	0.2529986200
0.4737965200	-0.0009999500	-0.0750320930	0.0009777599	0.2529333800
0.4736789200	-0.0009999500	-0.0750338290	0.0009789598	0.2528945800
0.4632710200	-0.0009999500	-0.0751856490	0.0007447045	0.2499282200
0.4543798900	-0.0009999500	-0.0753029290	0.0010782989	0.2457460000
0.4542764400	-0.0009999500	-0.0753043070	0.0010785727	0.2456952600
0.4541547300	-0.0009999500	-0.0753058120	0.0010843846	0.2456349600
0.4408777100	-0.0009999500	-0.0754595550	0.0009390045	0.2406806800
0.4406978500	-0.0009999500	-0.0754614700	0.0009338617	0.2406391800
0.4301313500	-0.0009999500	-0.0755654280	0.0009972691	0.2369076200
0.4299997700	-0.0009999500	-0.0755666420	0.0010008732	0.2368612000
0.4189016500	-0.0009999500	-0.0756582250	0.0011136430	0.2336404900
0.4187999700	-0.0009999500	-0.0756589920	0.0011110823	0.2336159100
0.4185402100	-0.0009999500	-0.0756610860	0.0011359779	0.2335273600
0.4068511400	-0.0009999500	-0.0757376330	0.0008096787	0.2306107400
0.4065078500	-0.0009999500	-0.0757394730	0.0007923154	0.2305305200
0.3986230800	-0.0009999500	-0.0757794230	0.0011453268	0.2285336700
0.3983316400	-0.0009999500	-0.0757806820	0.0011519514	0.2284364600
0.3875394200	-0.0009999500	-0.0758200880	0.0010320527	0.2255187500
0.3871835800	-0.0009999500	-0.0758208190	0.0010211827	0.2254374200
0.3758200400	-0.0009999500	-0.0758429690	0.0005925290	0.2220269000
0.3679910000	-0.0009999500	-0.0758463810	0.0009530889	0.2194986300
0.3677800000	-0.0009999500	-0.0758463520	0.0009402687	0.2194419100
0.3603236700	-0.0009999500	-0.0758404580	0.0009845490	0.2172272200
0.3602465400	-0.0009999500	-0.0758403690	0.0009855493	0.2172051200
0.3530421600	-0.0009999500	-0.0758260410	0.0012439041	0.2150555400
0.3529361800	-0.0009999500	-0.0758257580	0.0012450377	0.2150276900
0.3433802700	-0.0009999500	-0.0757933330	0.0008457864	0.2130276400
0.3432196400	-0.0009999500	-0.0757926030	0.0008520244	0.2129876200
0.3317760200	-0.0009999500	-0.0757330210	0.0010362286	0.2105103900
0.3316676900	-0.0009999500	-0.0757323430	0.0010308715	0.2104765200
0.3218982800	-0.0009999500	-0.0756630380	0.0010475592	0.2077355800
0.3218154600	-0.0009999500	-0.0756623970	0.0010491772	0.2077106200
0.3115836100	-0.0009999500	-0.0755710600	0.0011274876	0.2050673800
0.3114824300	-0.0009999500	-0.0755701360	0.0011253334	0.2050466100
0.3038319600	-0.0009999500	-0.0754889770	0.0010540243	0.2026051100
0.3037168700	-0.0009999500	-0.0754876660	0.0010562685	0.2025891500
0.2937949600	-0.0009999500	-0.0753655510	0.0010145016	0.2012232500
0.2936928000	-0.0009999500	-0.0753642320	0.0010131404	0.2012097100
0.2936030000	-0.0009999500	-0.0753629280	0.0010133231	0.2011987400
0.2819143800	-0.0009999500	-0.0751939120	0.0009828560	0.2004571100
0.2818118900	-0.0009999500	-0.0751922350	0.0009864362	0.2004336900
0.2734261800	-0.0009999500	-0.0750537140	0.0011305442	0.1981662700
0.2732992800	-0.0009999500	-0.0750514050	0.0011350954	0.1981395900
0.2662615200	-0.0009999500	-0.0749236940	0.0008487939	0.1961678700
0.2600362600	-0.0009999500	-0.0748017950	0.0010713648	0.1946149300
0.2599042700	-0.0009999500	-0.0747992990	0.0010665716	0.1945809000
0.2545504900	-0.0009999500	-0.0746876600	0.0013666599	0.1941371600
0.2544061500	-0.0009999500	-0.0746845680	0.0013688221	0.1941197500
0.2469238600	-0.0009999500	-0.0745177940	0.0010280337	0.1940538000
0.2467667300	-0.0009999500	-0.0745140760	0.0010361472	0.1940165300
0.2408305900	-0.0009999500	-0.0743726860	0.0010121917	0.1919575800
0.2339719500	-0.0009999500	-0.0741990730	0.0011664213	0.1905215800
0.2337548100	-0.0009999500	-0.0741935970	0.0011583222	0.1904833900
0.2220779400	-0.0009999500	-0.0738722460	0.0013450083	0.1893333800
0.2219904800	-0.0009999500	-0.0738698470	0.0013427521	0.1893189400
0.2219346900	-0.0009999500	-0.0738682450	0.0013404903	0.1893244200
0.2129892700	-0.0009999500	-0.0735995990	0.0013750936	0.1881237200
0.2129384700	-0.0009999500	-0.0735980790	0.0013733722	0.1881031200
0.2128527300	-0.0009999500	-0.0735953080	0.0013786141	0.1880989700
0.2024193300	-0.0009999500	-0.0732566710	0.0011236689	0.1877759700
0.2023435400	-0.0009999500	-0.0732541160	0.0011219072	0.1877736000
0.1938151400	-0.0009999500	-0.0729565020	0.0011763890	0.1870852000
0.1937496400	-0.0009999500	-0.0729541850	0.0011762301	0.1870722900
0.1871360700	-0.0009999500	-0.0727101940	0.0012307746	0.1862493300
0.1870825900	-0.0009999500	-0.0727082040	0.0012265515	0.1862459600
0.1869943600	-0.0009999500	-0.0727047990	0.0012356908	0.1862497000
0.1759977800	-0.0009999500	-0.0722728740	0.0011864145	0.1855712500
0.1758652000	-0.0009999500	-0.0722674580	0.0011824024	0.1855608100
0.1668740700	-0.0009999500	-0.0718893190	0.0012284805	0.1848298000
0.1667735900	-0.0009999500	-0.0718849150	0.0012271506	0.1848223400
0.1570220600	-0.0009999500	-0.0714486910	0.0012413946	0.1848775900
0.1569100600	-0.0009999500	-0.0714434680	0.0012446322	0.1848749400
0.1446411800	-0.0009999500	-0.0708548720	0.0011585499	0.1850991000
0.1445242600	-0.0009999500	-0.0708491210	0.0011631769	0.1850920000
0.1359372000	-0.0009999500	-0.0704099090	0.0011865676	0.1855932900
0.1358267400	-0.0009999500	-0.0704041570	0.0011827192	0.1856090300
0.1283007900	-0.0009999500	-0.0700002240	0.0011953400	0.1848408000
0.1281817300	-0.0009999500	-0.0699937270	0.0011934577	0.1848324700
0.1198857700	-0.0009999500	-0.0695274700	0.0013281324	0.1850267100
0.1197930100	-0.0009999500	-0.0695221420	0.0013311670	0.1850229500
0.1196004300	-0.0009999500	-0.0695108990	0.0013491922	0.1850558200
0.1083521200	-0.0009999500	-0.0688418970	0.0009848156	0.1865808800
0.1081658900	-0.0009999500	-0.0688303410	0.0009689966	0.1865744100
0.0971540210	-0.0009999500	-0.0681320130	0.0013992021	0.1859875200
0.0970434250	-0.0009999500	-0.0681248610	0.0013887964	0.1859906600
0.0969901530	-0.0009999500	-0.0681213510	0.0013906761	0.1859901700
0.0887530820	-0.0009999500	-0.0675697250	0.0012918500	0.1866848200
0.0886850210	-0.0009999500	-0.0675650760	0.0012893943	0.1867038900
0.0819035770	-0.0009999500	-0.0670914580	0.0013274734	0.1884564000
0.0818057060	-0.0009999500	-0.0670844470	0.0013384905	0.1884569800
0.0734501700	-0.0009999500	-0.0664756820	0.0015608025	0.1893541500
0.0733459000	-0.0009999500	-0.0664679330	0.0015530158	0.1893679500
0.0732168850	-0.0009999500	-0.0664580320	0.0015672444	0.1893812100
0.0647109150	-0.0009999500	-0.0658083930	0.0015129609	0.1919529000
0.0645414670	-0.0009999500	-0.0657949890	0.0015085966	0.1919841600
0.0641714780	-0.0009999500	-0.0657647700	0.0015332428	0.1920168800
0.0524514020	-0.0009999500	-0.0648171380	0.0013629932	0.1952400100
0.0508310870	-0.0009999500	-0.0646775140	0.0016096461	0.1953128100
0.0418015760	-0.0009999500	-0.0638981090	0.0017093103	0.1974099700
0.0327397620	-0.0009999500	-0.0630671380	0.0022355669	0.1991687900
0.0294521600	-0.0009999500	-0.0627657620	0.0022144532	0.2003035400
0.0246416930	-0.0009999500	-0.0622964840	0.0025715520	0.2015371000
0.0194080270	-0.0009999500	-0.0617889310	0.0025537846	0.2034694100
0.0180914120	-0.0009999500	-0.0616556890	0.0026194149	0.2036888600
0.0071447422	-0.0009999500	-0.0605283010	0.0025777958	0.2067734700
0.0062283697	-0.0009999500	-0.0604321550	0.0025418974	0.2071402500
0.0044471864	-0.0009999500	-0.0602382090	0.0025370976	0.2077066700
-0.0050062737	-0.0009999500	-0.0592000110	0.0024373782	0.2113974200
-0.0069935033	-0.0009999500	-0.0589745340	0.0024611687	0.2120218400
-0.0184593000	-0.0009999500	-0.0576279950	0.0026658532	0.2148585600
-0.0190960190	-0.0009999500	-0.0575525840	0.0026604823	0.2151033100
-0.0191987450	-0.0009999500	-0.0575401670	0.0026611822	0.2151353500
-0.0195745450	-0.0009999500	-0.0574936980	0.0026628615	0.2153205700
-0.0288465970	-0.0009999500	-0.0563395280	0.0022137029	0.2201485000
-0.0324852800	-0.0009999500	-0.0558697020	0.0023594133	0.2218611800
-0.0363934670	-0.0009999500	-0.0553559620	0.0022692907	0.2240408400
-0.0440253350	-0.0009999500	-0.0543196310	0.0024775974	0.2269052100
-0.0463007500	-0.0009999500	-0.0540114380	0.0024467880	0.2278735300
-0.0463551880	-0.0009999500	-0.0540039350	0.0024458575	0.2279259100
-0.0466050950	-0.0009999500	-0.0539683700	0.0024568317	0.2280553600
-0.0498050410	-0.0009999500	-0.0535118950	0.0025364811	0.2302720200
-0.0538829750	-0.0009999500	-0.0529303890	0.0024909639	0.2334307600
-0.0565010230	-0.0009999500	-0.0525456960	0.0025765344	0.2347920800
-0.0607446430	-0.0009999500	-0.0519153740	0.0023951242	0.2374632800
-0.0616204250	-0.0009999500	-0.0517858160	0.0023707737	0.2379128600
-0.0620866490	-0.0009999500	-0.0517145060	0.0023673548	0.2383756200
-0.0669384450	-0.0009999500	-0.0509687920	0.0025723848	0.2433433400
-0.0677432340	-0.0009999500	-0.0508445580	0.0025549983	0.2440970200
-0.0732840600	-0.0009999500	-0.0499631240	0.0024772405	0.2465399700
-0.0758226510	-0.0009999500	-0.0495540130	0.0025364625	0.2482918600
-0.0831281620	-0.0009999500	-0.0483340140	0.0025292529	0.2533320200
-0.0857314540	-0.0009999500	-0.0478950070	0.0024349650	0.2552506000
-0.0884665100	-0.0009999500	-0.0474115720	0.0025773516	0.2572878300
-0.0939230990	-0.0009999500	-0.0464521350	0.0023679052	0.2621502300
-0.0955376920	-0.0009999500	-0.0461608390	0.0023479799	0.2636793600
-0.1056126800	-0.0009999500	-0.0442730750	0.0030144740	0.2726618300
-0.1062326500	-0.0009999500	-0.0441566000	0.0030303732	0.2733188000
-0.1067675900	-0.0009999500	-0.0440525080	0.0030527814	0.2738386700
-0.1151043300	-0.0009999500	-0.0423982400	0.0030480101	0.2842774700
-0.1152425200	-0.0009999500	-0.0423705620	0.0030390203	0.2844650700
-0.1154514300	-0.0009999500	-0.0423271810	0.0030399617	0.2846998600
-0.1234385200	-0.0009999500	-0.0406608320	0.0030135163	0.2974787700
-0.1261550800	-0.0009999500	-0.0400680040	0.0030389773	0.3000289800
-0.1333638100	-0.0009999500	-0.0384678280	0.0029224900	0.3088925800
-0.1360755900	-0.0009999500	-0.0378509460	0.0028482867	0.3136073100
-0.1426691100	-0.0009999500	-0.0362805690	0.0028483930	0.3231715300
-0.1452583200	-0.0009999500	-0.0356619400	0.0028132997	0.3272953600
-0.1532655800	-0.0009999500	-0.0336368460	0.0029135664	0.3409718000
-0.1536787000	-0.0009999500	-0.0335324290	0.0029088372	0.3416997200
-0.1540310700	-0.0009999500	-0.0334391710	0.0029117444	0.3425030700
-0.1599167400	-0.0009999500	-0.0318708720	0.0026274838	0.3584408800
-0.1612220300	-0.0009999500	-0.0315107740	0.0026223096	0.3616124700
-0.1660429200	-0.0009999500	-0.0301637580	0.0028379101	0.3732688700
-0.1667804600	-0.0009999500	-0.0299498610	0.0028420062	0.3749147700
-0.1721422800	-0.0009999500	-0.0283820390	0.0027716710	0.3855066600
-0.1741190000	-0.0009999500	-0.0277793090	0.0028913640	0.3921667000
-0.1768666500	-0.0009999500	-0.0269451480	0.0027327379	0.4004848300
-0.1801165500	-0.0009999500	-0.0258956920	0.0027628352	0.4111711100
-0.1836212100	-0.0009999500	-0.0247741660	0.0026393650	0.4212108600
-0.1892972400	-0.0009999500	-0.0228261170	0.0028246269	0.4410427800
-0.1911814700	-0.0009999500	-0.0221841280	0.0027712408	0.4471192400
-0.1916478400	-0.0009999500	-0.0220192470	0.0027659943	0.4496569900
-0.1934740700	-0.0009999500	-0.0213478470	0.0028399378	0.4585439300
-0.1980266300	-0.0009999500	-0.0196648650	0.0025774110	0.4827916900
-0.2030347000	-0.0009999500	-0.0176954230	0.0026341841	0.5080650400
-0.2050625800	-0.0009999500	-0.0168500520	0.0025714728	0.5185595200
-0.2101196300	-0.0009999500	-0.0147026980	0.0022429983	0.5466170900
-0.2120116500	-0.0009999500	-0.0138317190	0.0023100052	0.5610995900
-0.2159410700	-0.0009999500	-0.0120082480	0.0022110867	0.5930762300
-0.2186358900	-0.0009999500	-0.0106704020	0.0021434677	0.6170057700
-0.2220641100	-0.0009999500	-0.0088514378	0.0019977917	0.6458761100
-0.2253242400	-0.0009999500	-0.0070787864	0.0017308545	0.6723442100
-0.2269046300	-0.0009999500	-0.0061200880	0.0016147559	0.6914473800
-0.2298318600	-0.0009999500	-0.0043441071	0.0014133986	0.7293552800
-0.2318517600	-0.0009999500	-0.0029971034	0.0014678318	0.7625466000
-0.2332821500	-0.0009999500	-0.0020125469	0.0014240393	0.7833843800
-0.2348177700	-0.0009999500	-0.0008688918	0.0013236939	0.8104605100
-0.2360609800	-0.0009999500	0.0000460598	0.0011664340	0.8309888800
-0.2363584800	-0.0009999500	0.0002809923	0.0011380768	0.8358695500
-0.2397555600	-0.0009999500	0.0031738470	0.0007433581	0.8912005400
-0.2398133100	-0.0009999500	0.0032240150	0.0007350018	0.8921342500
-0.2398632900	-0.0009999500	0.0032731574	0.0007272067	0.8930299900
-0.2432458100	-0.0009999500	0.0067743254	0.0003160852	0.9519792800
-0.2433482300	-0.0009999500	0.0068945657	0.0003058161	0.9534410200
-0.2455530300	-0.0009999500	0.0098168617	0.0000949759	0.9827188300
-0.2457603400	-0.0009999500	0.0101105600	0.0000627589	0.9850400100
-0.2459436700	-0.0009999500	0.0104178470	0.0000451383	0.9853199100
-0.2468899500	-0.0009999500	0.0120352350	-0.0000458280	0.9774760000
-0.2469582400	-0.0009999500	0.0121760940	-0.0000513993	0.9754201800
-0.2471067300	-0.0009999500	0.0125546020	-0.0000573383	0.9673357000
-0.2481418300	-0.0009999500	0.0149382590	-0.0000914506	0.9304076400
-0.2486782700	-0.0009999500	0.0168600790	-0.0001128567	0.8661236800
-0.2489474100	-0.0009999500	0.0184054340	-0.0000928042	0.8027378300
-0.2490612400	-0.0009999500	0.0212275420	0.0001531478	0.6394153800
-0.2490486800	-0.0009999500	0.0217889360	0.0002726649	0.5922627400
-0.2490098200	-0.0009999500	0.0220737610	0.0003540356	0.5700727700
-0.2488698400	-0.0009999500	0.0228067210	0.0005908216	0.5152171900
-0.2486616800	-0.0009999500	0.0241194550	0.0008572788	0.4050910500
-0.2483114600	-0.0009999500	0.0252798390	0.0014419563	0.3089308100
-0.2480496600	-0.0009999500	0.0260950380	0.0018538593	0.2343654500
-0.2478796500	-0.0009999500	0.0265045890	0.0021418738	0.2039837100
-0.2474384300	-0.0009999500	0.0274958910	0.0029881602	0.1176351700
-0.2472241700	-0.0009999500	0.0279217050	0.0032392560	0.0831556840
-0.2465946800	-0.0009999500	0.0290107430	0.0037600246	0.0174028410
-0.2462626200	-0.0009999500	0.0295699740	0.0041794119	-0.0174174760
-0.2460462500	-0.0009999500	0.0298940170	0.0043983550	-0.0392073430
-0.2453337800	-0.0009999500	0.0308838240	0.0046639039	-0.1130814900
-0.2452968500	-0.0009999500	0.0309344060	0.0046492647	-0.1169838800
-0.2452678700	-0.0009999500	0.0309708300	0.0046518403	-0.1188496500
-0.2441154700	-0.0009999500	0.0323531260	0.0046193891	-0.1942968800
-0.2439491600	-0.0009999500	0.0325356310	0.0047091454	-0.2029535900
-0.2427752000	-0.0009999500	0.0337446850	0.0051211137	-0.2580843000
-0.2426769400	-0.0009999500	0.0338406560	0.0051190507	-0.2619140700
-0.2421620000	-0.0009999500	0.0343070660	0.0053134513	-0.2770384000
-0.2411404400	-0.0009999500	0.0352239160	0.0053294628	-0.3047892200
-0.2402015800	-0.0009999500	0.0359934640	0.0062328491	-0.3237431300
-0.2395979300	-0.0009999500	0.0364489630	0.0063600826	-0.3356761600
-0.2384290000	-0.0009999500	0.0373207000	0.0058561577	-0.3578333900
-0.2376942500	-0.0009999500	0.0378211480	0.0058101636	-0.3702860500
-0.2363703300	-0.0009999500	0.0386931820	0.0052348372	-0.3905520700
-0.2347974900	-0.0009999500	0.0396487970	0.0060290604	-0.4064479500
-0.2346188400	-0.0009999500	0.0397590470	0.0060410922	-0.4079757900
-0.2345117300	-0.0009999500	0.0398205180	0.0060441183	-0.4085622100
-0.2331263300	-0.0009999500	0.0405869630	0.0058471648	-0.4149310600
-0.2322940800	-0.0009999500	0.0410483930	0.0056481926	-0.4188766200
-0.2321489200	-0.0009999500	0.0411233230	0.0056279773	-0.4196067200
-0.2297993700	-0.0009999500	0.0423036180	0.0050328353	-0.4316085000
-0.2293341600	-0.0009999500	0.0425220210	0.0050854215	-0.4327410500
-0.2272992400	-0.0009999500	0.0434512720	0.0050655738	-0.4364466400
-0.2259828400	-0.0009999500	0.0440155570	0.0050234366	-0.4376548200
-0.2241919800	-0.0009999500	0.0447564050	0.0052249414	-0.4400361200
-0.2220169300	-0.0009999500	0.0455949310	0.0054102671	-0.4439420400
-0.2209482900	-0.0009999500	0.0459971910	0.0052365133	-0.4444708500
-0.2194575700	-0.0009999500	0.0465018860	0.0052743347	-0.4438666400
-0.2168645700	-0.0009999500	0.0474003070	0.0048093697	-0.4412694900
-0.2147093700	-0.0009999500	0.0480970070	0.0054928724	-0.4389566200
-0.2134971200	-0.0009999500	0.0484678450	0.0057808092	-0.4372312700
-0.2092568000	-0.0009999500	0.0496924220	0.0056503943	-0.4346958700
-0.2090427100	-0.0009999500	0.0497526860	0.0055899684	-0.4344373300
-0.2088937200	-0.0009999500	0.0497914250	0.0055770821	-0.4342189400
-0.2034638800	-0.0009999500	0.0511896540	0.0054779404	-0.4260193700
-0.2034115600	-0.0009999500	0.0512022150	0.0054765028	-0.4259496600
-0.2030490600	-0.0009999500	0.0512857960	0.0055161757	-0.4256988500
-0.1982576100	-0.0009999500	0.0523893090	0.0055248431	-0.4222249700
-0.1941640400	-0.0009999500	0.0532304310	0.0058743459	-0.4143134700
-0.1920924300	-0.0009999500	0.0536591080	0.0057977325	-0.4103236500
-0.1914405700	-0.0009999500	0.0537836630	0.0058027166	-0.4093948300
-0.1896580900	-0.0009999500	0.0540959610	0.0058633354	-0.4066767400
-0.1828348000	-0.0009999500	0.0553105060	0.0056623866	-0.3969419600
-0.1745610100	-0.0009999500	0.0565539300	0.0051438417	-0.3869617300
-0.1737080500	-0.0009999500	0.0566834660	0.0050354782	-0.3858390700
-0.1712032600	-0.0009999500	0.0570001160	0.0050617193	-0.3827799600
-0.1641425200	-0.0009999500	0.0578932240	0.0049205798	-0.3739776300
-0.1631799500	-0.0009999500	0.0580057430	0.0049695383	-0.3727261700
-0.1620480100	-0.0009999500	0.0581219900	0.0049607836	-0.3708941300
-0.1506550500	-0.0009999500	0.0592731460	0.0043568540	-0.3572842200
-0.1496751000	-0.0009999500	0.0593558890	0.0043806686	-0.3561320000
-0.1426485200	-0.0009999500	0.0599330590	0.0042960748	-0.3475588900
-0.1344236300	-0.0009999500	0.0604984310	0.0049679728	-0.3378688700
-0.1340019000	-0.0009999500	0.0605277490	0.0049873316	-0.3373745700
-0.1336924900	-0.0009999500	0.0605459400	0.0049604753	-0.3369449700
-0.1247696400	-0.0009999500	0.0610389860	0.0040164192	-0.3245156400
-0.1194843800	-0.0009999500	0.0612725020	0.0041610961	-0.3192809200
-0.1146057800	-0.0009999500	0.0614736790	0.0040986553	-0.3143341200
-0.1108082800	-0.0009999500	0.0615826920	0.0042261017	-0.3104558900
-0.1038591000	-0.0009999500	0.0617953350	0.0042173278	-0.3012447700
-0.1009578900	-0.0009999500	0.0618446130	0.0042139203	-0.2984440900
-0.0936525610	-0.0009999500	0.0619787540	0.0043319541	-0.2932095200
-0.0888645720	-0.0009999500	0.0620253010	0.0041702376	-0.2882908600
-0.0830650260	-0.0009999500	0.0620581920	0.0041889696	-0.2822054600
-0.0748180450	-0.0009999500	0.0620425530	0.0040255205	-0.2737183600
-0.0721988900	-0.0009999500	0.0620305910	0.0040076358	-0.2716186900
-0.0681407680	-0.0009999500	0.0619731360	0.0039835474	-0.2674137700
-0.0572904270	-0.0009999500	0.0618239530	0.0038048369	-0.2572419600
-0.0526900510	-0.0009999500	0.0617014540	0.0037680230	-0.2519277300
-0.0427986310	-0.0009999500	0.0614512970	0.0035358318	-0.2418702400
-0.0368749350	-0.0009999500	0.0612333600	0.0034103147	-0.2363085000
-0.0295995340	-0.0009999500	0.0609771800	0.0033031831	-0.2290863700
-0.0234650840	-0.0009999500	0.0607114060	0.0034265235	-0.2218971800
-0.0117017660	-0.0009999500	0.0601453520	0.0033997042	-0.2111412300
-0.0098851668	-0.0009999500	0.0600476970	0.0033742892	-0.2096593200
0.0042227604	-0.0009999500	0.0592405570	0.0031494317	-0.1969801500
0.0091541372	-0.0009999500	0.0589239820	0.0029663497	-0.1921737300
0.0173234570	-0.0009999500	0.0583782610	0.0029175570	-0.1843552400
0.0240734330	-0.0009999500	0.0579064900	0.0030478778	-0.1778218000
0.0372195800	-0.0009999500	0.0568922460	0.0029323391	-0.1648442600
0.0431522690	-0.0009999500	0.0564305630	0.0029387449	-0.1591473800
0.0533040910	-0.0009999500	0.0555616690	0.0028690398	-0.1516702300
0.0586827140	-0.0009999500	0.0550980900	0.0027836324	-0.1467393600
0.0699438150	-0.0009999500	0.0540566710	0.0025871422	-0.1348556000
0.0763877260	-0.0009999500	0.0534450370	0.0024953861	-0.1280829300
0.0858865160	-0.0009999500	0.0524961200	0.0023700778	-0.1167298100
0.1018492100	-0.0009999500	0.0508391450	0.0024036897	-0.1032060400
0.1105894400	-0.0009999500	0.0498864800	0.0023453439	-0.0957947300
1 2 
2 3 
3 4 
4 5 
5 6 
6 7 
7 8 
8 9 
9 10 
10 11 
11 12 
12 13 
13 14 
14 15 
15 16 
16 17 
17 18 
18 19 
19 20 
20 21 
21 22 
22 23 
23 24 
24 25 
25 26 
26 27 
27 28 
28 29 
29 30 
30 31 
31 32 
32 33 
33 34 
34 35 
35 36 
36 37 
37 38 
38 39 
39 40 
40 41 
41 42 
42 43 