VARIABLES= iterations rms_res_mf1 rms_res_mf2 rms_res_mf3 rms_res_mf4 rms_res_mf5 rms_res_trb1 CL CD CDv CM
ZONE T = "USM3D-ME, Pointwise_4.0"
1  -999  -999  -999  -999  2.249635E-08  7.074144E-02  -2.636301E-02  7.145837E-01  7.145837E-01  1.225062E-04
2  -999  -999  -999  -999  1.810491E-08  1.711889E-02  5.934977E-01  1.008482E+00  7.095543E-01  -1.588151E-01
3  -999  -999  -999  -999  1.290746E-08  4.436929E-03  1.314979E+00  1.364276E+00  6.998164E-01  -3.400870E-01
4  -999  -999  -999  -999  9.118345E-09  1.167255E-03  1.771728E+00  1.586344E+00  6.812658E-01  -4.537690E-01
5  -999  -999  -999  -999  6.791855E-09  2.616039E-04  1.807110E+00  1.569632E+00  6.469339E-01  -4.632934E-01
6  -999  -999  -999  -999  4.961329E-09  7.192544E-05  1.726620E+00  1.466994E+00  5.874371E-01  -4.425290E-01
7  -999  -999  -999  -999  3.620169E-09  2.119886E-05  1.703066E+00  1.360652E+00  4.962934E-01  -4.355230E-01
8  -999  -999  -999  -999  2.670469E-09  5.924893E-06  1.700202E+00  1.233499E+00  3.808824E-01  -4.337649E-01
9  -999  -999  -999  -999  2.039328E-09  1.580334E-06  1.657502E+00  1.054984E+00  2.667954E-01  -4.199118E-01
10  -999  -999  -999  -999  1.558067E-09  4.093724E-07  1.507135E+00  7.875911E-01  1.787061E-01  -3.631028E-01
11  -999  -999  -999  -999  1.187895E-09  1.048573E-07  1.309418E+00  4.973237E-01  1.198439E-01  -2.647778E-01
12  -999  -999  -999  -999  1.506102E-09  2.817883E-08  1.042444E+00  2.878270E-01  8.160170E-02  -1.414686E-01
13  -999  -999  -999  -999  1.109085E-09  1.792250E-08  7.991312E-01  2.166772E-01  7.102802E-02  -8.112690E-02
14  -999  -999  -999  -999  5.662666E-10  6.722414E-09  7.391618E-01  1.902519E-01  6.663483E-02  -6.210720E-02
15  -999  -999  -999  -999  4.898802E-10  5.186645E-09  6.045941E-01  1.493368E-01  6.057782E-02  -2.391166E-02
16  -999  -999  -999  -999  4.198542E-10  5.138354E-09  3.465179E-01  9.012560E-02  5.283608E-02  3.247038E-02
17  -999  -999  -999  -999  4.092116E-10  5.073868E-09  3.332252E-01  8.555686E-02  5.210133E-02  3.359451E-02
18  -999  -999  -999  -999  4.241671E-10  5.102634E-09  2.858624E-01  7.496000E-02  5.073291E-02  4.307031E-02
19  -999  -999  -999  -999  4.450565E-10  5.224389E-09  2.062718E-01  5.734823E-02  4.843166E-02  5.598065E-02
20  -999  -999  -999  -999  4.300390E-10  5.383941E-09  1.337217E-01  3.466488E-02  4.490993E-02  5.897512E-02
21  -999  -999  -999  -999  3.416564E-10  5.615232E-09  1.852071E-01  1.661054E-02  4.011493E-02  3.475224E-02
22  -999  -999  -999  -999  2.013313E-10  6.438689E-09  2.925476E-01  1.867313E-02  3.424908E-02  1.046483E-02
23  -999  -999  -999  -999  3.889946E-10  8.404733E-09  3.162122E-01  4.029895E-02  2.815296E-02  5.379998E-03
24  -999  -999  -999  -999  4.760114E-10  7.788570E-09  3.145193E-01  4.133386E-02  2.688621E-02  5.430998E-03
25  -999  -999  -999  -999  4.727672E-10  7.765094E-09  3.124211E-01  4.207296E-02  2.569405E-02  5.550121E-03
26  -999  -999  -999  -999  4.411794E-10  8.293593E-09  3.105574E-01  4.241862E-02  2.490717E-02  5.687560E-03
27  -999  -999  -999  -999  4.051043E-10  9.137835E-09  3.086286E-01  4.255346E-02  2.429455E-02  5.843045E-03
28  -999  -999  -999  -999  3.805358E-10  1.020138E-08  3.067329E-01  4.258658E-02  2.375350E-02  5.988361E-03
29  -999  -999  -999  -999  3.684344E-10  1.151829E-08  3.043711E-01  4.241837E-02  2.318199E-02  6.160593E-03
30  -999  -999  -999  -999  3.631748E-10  1.300957E-08  3.015700E-01  4.199745E-02  2.256020E-02  6.342742E-03
31  -999  -999  -999  -999  3.683366E-10  1.465954E-08  2.979588E-01  4.127515E-02  2.184393E-02  6.545152E-03
32  -999  -999  -999  -999  5.278138E-10  2.107882E-08  2.921117E-01  4.003589E-02  2.063105E-02  6.668263E-03
33  -999  -999  -999  -999  4.820693E-10  1.948914E-08  2.896448E-01  3.951126E-02  2.010338E-02  6.674176E-03
34  -999  -999  -999  -999  4.620616E-10  1.892566E-08  2.862059E-01  3.880990E-02  1.940319E-02  6.685732E-03
35  -999  -999  -999  -999  4.663838E-10  1.885744E-08  2.827987E-01  3.814613E-02  1.871085E-02  6.716682E-03
36  -999  -999  -999  -999  4.219176E-10  1.879962E-08  2.791356E-01  3.745067E-02  1.801903E-02  6.763234E-03
37  -999  -999  -999  -999  1.131560E-10  1.877247E-08  2.790836E-01  3.743128E-02  1.801672E-02  6.757686E-03
38  -999  -999  -999  -999  9.986472E-11  1.850404E-08  2.790729E-01  3.742685E-02  1.801628E-02  6.756617E-03
39  -999  -999  -999  -999  8.910478E-11  1.843261E-08  2.790541E-01  3.741607E-02  1.801540E-02  6.755937E-03
40  -999  -999  -999  -999  8.804197E-11  1.842253E-08  2.790505E-01  3.741383E-02  1.801523E-02  6.755876E-03
41  -999  -999  -999  -999  8.634445E-11  1.839978E-08  2.790436E-01  3.740893E-02  1.801488E-02  6.756084E-03
42  -999  -999  -999  -999  8.282995E-11  1.836178E-08  2.790318E-01  3.739832E-02  1.801419E-02  6.757595E-03
43  -999  -999  -999  -999  7.681195E-11  1.830167E-08  2.790073E-01  3.736985E-02  1.801283E-02  6.765943E-03
44  -999  -999  -999  -999  6.766094E-11  1.821845E-08  2.789526E-01  3.729061E-02  1.801019E-02  6.792465E-03
45  -999  -999  -999  -999  5.530352E-11  1.813010E-08  2.788514E-01  3.709620E-02  1.800505E-02  6.814107E-03
46  -999  -999  -999  -999  4.232579E-11  1.806680E-08  2.787061E-01  3.680593E-02  1.799470E-02  6.798045E-03
47  -999  -999  -999  -999  3.345148E-11  1.806110E-08  2.784843E-01  3.647542E-02  1.797355E-02  6.820778E-03
48  -999  -999  -999  -999  3.383167E-11  1.814884E-08  2.779735E-01  3.613235E-02  1.793143E-02  6.917183E-03
49  -999  -999  -999  -999  4.396171E-11  1.840195E-08  2.772064E-01  3.614819E-02  1.784983E-02  6.943412E-03
50  -999  -999  -999  -999  5.422334E-11  1.868758E-08  2.760374E-01  3.615186E-02  1.769789E-02  6.922517E-03
51  -999  -999  -999  -999  9.683114E-11  2.025356E-08  2.740221E-01  3.590640E-02  1.742131E-02  6.905348E-03
52  -999  -999  -999  -999  8.144163E-11  1.943453E-08  2.740220E-01  3.590634E-02  1.742126E-02  6.905248E-03
53  -999  -999  -999  -999  6.727551E-11  1.933360E-08  2.740217E-01  3.590622E-02  1.742114E-02  6.905034E-03
54  -999  -999  -999  -999  5.790749E-11  1.931962E-08  2.740210E-01  3.590598E-02  1.742092E-02  6.904624E-03
55  -999  -999  -999  -999  5.111024E-11  1.928041E-08  2.740199E-01  3.590530E-02  1.742046E-02  6.903802E-03
56  -999  -999  -999  -999  4.345212E-11  1.927069E-08  2.740163E-01  3.590381E-02  1.741954E-02  6.903007E-03
57  -999  -999  -999  -999  3.594167E-11  1.927540E-08  2.740060E-01  3.590025E-02  1.741769E-02  6.903697E-03
58  -999  -999  -999  -999  2.940805E-11  1.923621E-08  2.739836E-01  3.588632E-02  1.741396E-02  6.907270E-03
59  -999  -999  -999  -999  2.319769E-11  1.923706E-08  2.739305E-01  3.585135E-02  1.740637E-02  6.910025E-03
60  -999  -999  -999  -999  1.954756E-11  1.923895E-08  2.738162E-01  3.578863E-02  1.739064E-02  6.907946E-03
61  -999  -999  -999  -999  2.173246E-11  1.929519E-08  2.735827E-01  3.569135E-02  1.735778E-02  6.907435E-03
62  -999  -999  -999  -999  3.297619E-11  1.944051E-08  2.730929E-01  3.560882E-02  1.729124E-02  6.913027E-03
63  -999  -999  -999  -999  2.298510E-11  1.945768E-08  2.730092E-01  3.559992E-02  1.727805E-02  6.916058E-03
64  -999  -999  -999  -999  2.029899E-11  1.948927E-08  2.728087E-01  3.558074E-02  1.725162E-02  6.918338E-03
65  -999  -999  -999  -999  1.734403E-11  1.948922E-08  2.728045E-01  3.558024E-02  1.725110E-02  6.918422E-03
66  -999  -999  -999  -999  1.589835E-11  1.949016E-08  2.727959E-01  3.557929E-02  1.725005E-02  6.918612E-03
67  -999  -999  -999  -999  1.464421E-11  1.949259E-08  2.727793E-01  3.557760E-02  1.724794E-02  6.919086E-03
68  -999  -999  -999  -999  1.377075E-11  1.949756E-08  2.727479E-01  3.557494E-02  1.724372E-02  6.920089E-03
69  -999  -999  -999  -999  1.346945E-11  1.951037E-08  2.726864E-01  3.557271E-02  1.723524E-02  6.922182E-03
70  -999  -999  -999  -999  1.470806E-11  1.953656E-08  2.725632E-01  3.556862E-02  1.721836E-02  6.924490E-03
71  -999  -999  -999  -999  1.978255E-11  1.959769E-08  2.723225E-01  3.555118E-02  1.718515E-02  6.928861E-03
72  -999  -999  -999  -999  3.254490E-11  1.973813E-08  2.718554E-01  3.547360E-02  1.712143E-02  6.926583E-03
73  -999  -999  -999  -999  2.247890E-11  1.974702E-08  2.717793E-01  3.546371E-02  1.710891E-02  6.926747E-03
74  -999  -999  -999  -999  2.171805E-11  1.978772E-08  2.715887E-01  3.541971E-02  1.708402E-02  6.923040E-03
75  -999  -999  -999  -999  2.981216E-11  1.988562E-08  2.712166E-01  3.534225E-02  1.703530E-02  6.915319E-03
76  -999  -999  -999  -999  2.073996E-11  1.988990E-08  2.711557E-01  3.533133E-02  1.702569E-02  6.915826E-03
77  -999  -999  -999  -999  1.950331E-11  1.991430E-08  2.710026E-01  3.530792E-02  1.700641E-02  6.913365E-03
78  -999  -999  -999  -999  2.542112E-11  1.998133E-08  2.707022E-01  3.527458E-02  1.696816E-02  6.910355E-03
79  -999  -999  -999  -999  4.179247E-11  2.013192E-08  2.701550E-01  3.527062E-02  1.689428E-02  6.903032E-03
80  -999  -999  -999  -999  5.649498E-11  2.066951E-08  2.692511E-01  3.529461E-02  1.675676E-02  6.874841E-03
81  -999  -999  -999  -999  4.247272E-11  2.037969E-08  2.692494E-01  3.529469E-02  1.675649E-02  6.874719E-03
82  -999  -999  -999  -999  3.611305E-11  2.030095E-08  2.692466E-01  3.529472E-02  1.675594E-02  6.874366E-03
83  -999  -999  -999  -999  3.019916E-11  2.028840E-08  2.692408E-01  3.529476E-02  1.675484E-02  6.873872E-03
84  -999  -999  -999  -999  2.481195E-11  2.028192E-08  2.692293E-01  3.529432E-02  1.675262E-02  6.873585E-03
85  -999  -999  -999  -999  2.026296E-11  2.027741E-08  2.692040E-01  3.529044E-02  1.674815E-02  6.873830E-03
86  -999  -999  -999  -999  1.696232E-11  2.027997E-08  2.691434E-01  3.528241E-02  1.673912E-02  6.873180E-03
87  -999  -999  -999  -999  1.717509E-11  2.029414E-08  2.690234E-01  3.526657E-02  1.672071E-02  6.870769E-03
88  -999  -999  -999  -999  2.409991E-11  2.034796E-08  2.687953E-01  3.524709E-02  1.668344E-02  6.863327E-03
89  -999  -999  -999  -999  4.066877E-11  2.046848E-08  2.683338E-01  3.519968E-02  1.661054E-02  6.852937E-03
90  -999  -999  -999  -999  6.128774E-11  2.064268E-08  2.673366E-01  3.505304E-02  1.647497E-02  6.856187E-03
91  -999  -999  -999  -999  1.056165E-10  2.069962E-08  2.657242E-01  3.503035E-02  1.622167E-02  6.835629E-03
92  -999  -999  -999  -999  2.498642E-10  2.102168E-08  2.629598E-01  3.475760E-02  1.571980E-02  6.855612E-03
93  -999  -999  -999  -999  7.699181E-11  2.083361E-08  2.629494E-01  3.475269E-02  1.571878E-02  6.856520E-03
94  -999  -999  -999  -999  4.697341E-11  2.061266E-08  2.629381E-01  3.473723E-02  1.571673E-02  6.859535E-03
95  -999  -999  -999  -999  3.338199E-11  2.039773E-08  2.629119E-01  3.468427E-02  1.571259E-02  6.863771E-03
96  -999  -999  -999  -999  2.484294E-11  2.023636E-08  2.628258E-01  3.458064E-02  1.570414E-02  6.860253E-03
97  -999  -999  -999  -999  2.074123E-11  2.014219E-08  2.626813E-01  3.445115E-02  1.568696E-02  6.863481E-03
98  -999  -999  -999  -999  2.324722E-11  2.011802E-08  2.624177E-01  3.434880E-02  1.565328E-02  6.874150E-03
99  -999  -999  -999  -999  3.337767E-11  2.014632E-08  2.619118E-01  3.438038E-02  1.559160E-02  6.899808E-03
100  -999  -999  -999  -999  4.056268E-11  1.999960E-08  2.610133E-01  3.433357E-02  1.548023E-02  6.932303E-03
101  -999  -999  -999  -999  7.292575E-11  1.975528E-08  2.595873E-01  3.416275E-02  1.527341E-02  6.956288E-03
102  -999  -999  -999  -999  1.151620E-10  1.978722E-08  2.571735E-01  3.386765E-02  1.483000E-02  7.008819E-03
103  -999  -999  -999  -999  3.800845E-11  1.907274E-08  2.571401E-01  3.380871E-02  1.482092E-02  7.008543E-03
104  -999  -999  -999  -999  3.313515E-11  1.906141E-08  2.571389E-01  3.380713E-02  1.482074E-02  7.008388E-03
105  -999  -999  -999  -999  3.067092E-11  1.904423E-08  2.571361E-01  3.380375E-02  1.482039E-02  7.008311E-03
106  -999  -999  -999  -999  2.786885E-11  1.901561E-08  2.571301E-01  3.379665E-02  1.481967E-02  7.008406E-03
107  -999  -999  -999  -999  2.492338E-11  1.897196E-08  2.571194E-01  3.378248E-02  1.481822E-02  7.007919E-03
108  -999  -999  -999  -999  2.188067E-11  1.891381E-08  2.570996E-01  3.375564E-02  1.481530E-02  7.005183E-03
109  -999  -999  -999  -999  1.852938E-11  1.884897E-08  2.570630E-01  3.371584E-02  1.480939E-02  7.001085E-03
110  -999  -999  -999  -999  1.602391E-11  1.878684E-08  2.570014E-01  3.366133E-02  1.479756E-02  7.000643E-03
111  -999  -999  -999  -999  1.679470E-11  1.874139E-08  2.568761E-01  3.361508E-02  1.477462E-02  7.000158E-03
112  -999  -999  -999  -999  2.280127E-11  1.870774E-08  2.566092E-01  3.366049E-02  1.473284E-02  7.008007E-03
113  -999  -999  -999  -999  2.753056E-11  1.852551E-08  2.560138E-01  3.361502E-02  1.465788E-02  7.042232E-03
114  -999  -999  -999  -999  1.891118E-11  1.852462E-08  2.560126E-01  3.361492E-02  1.465773E-02  7.042279E-03
115  -999  -999  -999  -999  1.565364E-11  1.852305E-08  2.560106E-01  3.361467E-02  1.465743E-02  7.042265E-03
116  -999  -999  -999  -999  1.341176E-11  1.852032E-08  2.560066E-01  3.361412E-02  1.465682E-02  7.042433E-03
117  -999  -999  -999  -999  1.147308E-11  1.851585E-08  2.559985E-01  3.361303E-02  1.465561E-02  7.043153E-03
118  -999  -999  -999  -999  9.926112E-12  1.850805E-08  2.559821E-01  3.360978E-02  1.465318E-02  7.044479E-03
119  -999  -999  -999  -999  8.867908E-12  1.849516E-08  2.559456E-01  3.360172E-02  1.464830E-02  7.046595E-03
120  -999  -999  -999  -999  9.054374E-12  1.847541E-08  2.558667E-01  3.358144E-02  1.463840E-02  7.050957E-03
121  -999  -999  -999  -999  1.175871E-11  1.845009E-08  2.557028E-01  3.353046E-02  1.461828E-02  7.059230E-03
122  -999  -999  -999  -999  1.892290E-11  1.841401E-08  2.553526E-01  3.342907E-02  1.457809E-02  7.076360E-03
123  -999  -999  -999  -999  2.674150E-11  1.852064E-08  2.547044E-01  3.331745E-02  1.450094E-02  7.105176E-03
124  -999  -999  -999  -999  3.649236E-10  1.816560E-08  2.536319E-01  3.316113E-02  1.434830E-02  7.130275E-03
125  -999  -999  -999  -999  1.253723E-10  1.811809E-08  2.536307E-01  3.316024E-02  1.434799E-02  7.128813E-03
126  -999  -999  -999  -999  1.039273E-10  1.811284E-08  2.536309E-01  3.316007E-02  1.434793E-02  7.128413E-03
127  -999  -999  -999  -999  8.153185E-11  1.810393E-08  2.536334E-01  3.315982E-02  1.434781E-02  7.127141E-03
128  -999  -999  -999  -999  6.057247E-11  1.809042E-08  2.536442E-01  3.315937E-02  1.434757E-02  7.123814E-03
129  -999  -999  -999  -999  4.344841E-11  1.807295E-08  2.536641E-01  3.315876E-02  1.434707E-02  7.120057E-03
130  -999  -999  -999  -999  2.988286E-11  1.805330E-08  2.536845E-01  3.315881E-02  1.434606E-02  7.120736E-03
131  -999  -999  -999  -999  1.965714E-11  1.803064E-08  2.536801E-01  3.315529E-02  1.434403E-02  7.127034E-03
132  -999  -999  -999  -999  1.295643E-11  1.800567E-08  2.536355E-01  3.314448E-02  1.433997E-02  7.128985E-03
133  -999  -999  -999  -999  9.853224E-12  1.797820E-08  2.535674E-01  3.313328E-02  1.433183E-02  7.128277E-03
134  -999  -999  -999  -999  1.064140E-11  1.795312E-08  2.534631E-01  3.310954E-02  1.431548E-02  7.131899E-03
135  -999  -999  -999  -999  1.608240E-11  1.793469E-08  2.532334E-01  3.305404E-02  1.428304E-02  7.138362E-03
136  -999  -999  -999  -999  2.208359E-11  1.784235E-08  2.527669E-01  3.297868E-02  1.422120E-02  7.148351E-03
137  -999  -999  -999  -999  1.124093E-11  1.783956E-08  2.527587E-01  3.297730E-02  1.421994E-02  7.148333E-03
138  -999  -999  -999  -999  8.810596E-12  1.783506E-08  2.527425E-01  3.297472E-02  1.421744E-02  7.148660E-03
139  -999  -999  -999  -999  7.785224E-12  1.782845E-08  2.527078E-01  3.297028E-02  1.421242E-02  7.149904E-03
140  -999  -999  -999  -999  8.281746E-12  1.782038E-08  2.526333E-01  3.295735E-02  1.420231E-02  7.151572E-03
141  -999  -999  -999  -999  1.150153E-11  1.781522E-08  2.524865E-01  3.293358E-02  1.418203E-02  7.154148E-03
142  -999  -999  -999  -999  1.964309E-11  1.782363E-08  2.522015E-01  3.290016E-02  1.414232E-02  7.157059E-03
143  -999  -999  -999  -999  2.744951E-11  1.775499E-08  2.517167E-01  3.290264E-02  1.406758E-02  7.156440E-03
144  -999  -999  -999  -999  1.307891E-11  1.775023E-08  2.517087E-01  3.290225E-02  1.406607E-02  7.156566E-03
145  -999  -999  -999  -999  1.170168E-11  1.774946E-08  2.517071E-01  3.290214E-02  1.406577E-02  7.156593E-03
146  -999  -999  -999  -999  1.066312E-11  1.774815E-08  2.517038E-01  3.290186E-02  1.406517E-02  7.156710E-03
147  -999  -999  -999  -999  9.563949E-12  1.774635E-08  2.516975E-01  3.290101E-02  1.406396E-02  7.156926E-03
148  -999  -999  -999  -999  8.401761E-12  1.774330E-08  2.516840E-01  3.289857E-02  1.406152E-02  7.157098E-03
149  -999  -999  -999  -999  7.493757E-12  1.773954E-08  2.516530E-01  3.289446E-02  1.405662E-02  7.157315E-03
150  -999  -999  -999  -999  7.926038E-12  1.773729E-08  2.515899E-01  3.288622E-02  1.404669E-02  7.157388E-03
151  -999  -999  -999  -999  1.116432E-11  1.774286E-08  2.514666E-01  3.287472E-02  1.402668E-02  7.157502E-03
152  -999  -999  -999  -999  1.912823E-11  1.777064E-08  2.512215E-01  3.285730E-02  1.398738E-02  7.158670E-03
153  -999  -999  -999  -999  2.694902E-11  1.774427E-08  2.507363E-01  3.281482E-02  1.391366E-02  7.168032E-03
154  -999  -999  -999  -999  5.030638E-11  1.788103E-08  2.498778E-01  3.273803E-02  1.377816E-02  7.177640E-03
155  -999  -999  -999  -999  2.540116E-11  1.784719E-08  2.496940E-01  3.264423E-02  1.374846E-02  7.186519E-03
156  -999  -999  -999  -999  2.896108E-11  1.798977E-08  2.492729E-01  3.258571E-02  1.368892E-02  7.199503E-03
157  -999  -999  -999  -999  1.710631E-11  1.794485E-08  2.491918E-01  3.257467E-02  1.367708E-02  7.203019E-03
158  -999  -999  -999  -999  1.627090E-11  1.800052E-08  2.490275E-01  3.256306E-02  1.365333E-02  7.208299E-03
159  -999  -999  -999  -999  2.145364E-11  1.808959E-08  2.487403E-01  3.254427E-02  1.360731E-02  7.211409E-03
160  -999  -999  -999  -999  1.317069E-11  1.809989E-08  2.486882E-01  3.253978E-02  1.359830E-02  7.212376E-03
161  -999  -999  -999  -999  1.267387E-11  1.809911E-08  2.485748E-01  3.252500E-02  1.358022E-02  7.213670E-03
162  -999  -999  -999  -999  1.788562E-11  1.825235E-08  2.483598E-01  3.249355E-02  1.354456E-02  7.213681E-03
163  -999  -999  -999  -999  2.770690E-11  1.835093E-08  2.479205E-01  3.243727E-02  1.347633E-02  7.223138E-03
164  -999  -999  -999  -999  5.862387E-11  1.857041E-08  2.471967E-01  3.239805E-02  1.334914E-02  7.233686E-03
165  -999  -999  -999  -999  1.050196E-10  1.940971E-08  2.458547E-01  3.221285E-02  1.309118E-02  7.274622E-03
166  -999  -999  -999  -999  2.345156E-11  1.922420E-08  2.455693E-01  3.209683E-02  1.304411E-02  7.277707E-03
167  -999  -999  -999  -999  1.159600E-11  1.922158E-08  2.455645E-01  3.209501E-02  1.304318E-02  7.277605E-03
168  -999  -999  -999  -999  8.633936E-12  1.922581E-08  2.455549E-01  3.209158E-02  1.304131E-02  7.277793E-03
169  -999  -999  -999  -999  7.166641E-12  1.923788E-08  2.455332E-01  3.208567E-02  1.303758E-02  7.278556E-03
170  -999  -999  -999  -999  6.956771E-12  1.926437E-08  2.454876E-01  3.207745E-02  1.303018E-02  7.280500E-03
171  -999  -999  -999  -999  8.442762E-12  1.932131E-08  2.453958E-01  3.207309E-02  1.301566E-02  7.283774E-03
172  -999  -999  -999  -999  1.269938E-11  1.945298E-08  2.451981E-01  3.205082E-02  1.298741E-02  7.294180E-03
173  -999  -999  -999  -999  8.579749E-12  1.946679E-08  2.451597E-01  3.204577E-02  1.298183E-02  7.296593E-03
174  -999  -999  -999  -999  8.150094E-12  1.950912E-08  2.450734E-01  3.202822E-02  1.297063E-02  7.302338E-03
175  -999  -999  -999  -999  1.089095E-11  1.962393E-08  2.449021E-01  3.198534E-02  1.294824E-02  7.310699E-03
176  -999  -999  -999  -999  1.737609E-11  1.981911E-08  2.445676E-01  3.192280E-02  1.290425E-02  7.325771E-03
177  -999  -999  -999  -999  1.076691E-11  1.981185E-08  2.445614E-01  3.192147E-02  1.290338E-02  7.325893E-03
178  -999  -999  -999  -999  7.846431E-12  1.981359E-08  2.445483E-01  3.191913E-02  1.290165E-02  7.326750E-03
179  -999  -999  -999  -999  6.294824E-12  1.982255E-08  2.445212E-01  3.191491E-02  1.289815E-02  7.328303E-03
180  -999  -999  -999  -999  6.038294E-12  1.984455E-08  2.444679E-01  3.190595E-02  1.289104E-02  7.330803E-03
181  -999  -999  -999  -999  5.073107E-12  1.984801E-08  2.444578E-01  3.190430E-02  1.288962E-02  7.331255E-03
182  -999  -999  -999  -999  4.804322E-12  1.985608E-08  2.444378E-01  3.190194E-02  1.288677E-02  7.332082E-03
183  -999  -999  -999  -999  4.516780E-12  1.985762E-08  2.444336E-01  3.190134E-02  1.288619E-02  7.332200E-03
184  -999  -999  -999  -999  4.400641E-12  1.986077E-08  2.444255E-01  3.190018E-02  1.288505E-02  7.332422E-03
185  -999  -999  -999  -999  4.383554E-12  1.986788E-08  2.444100E-01  3.189828E-02  1.288274E-02  7.332832E-03
186  -999  -999  -999  -999  4.600099E-12  1.988181E-08  2.443787E-01  3.189469E-02  1.287809E-02  7.333708E-03
187  -999  -999  -999  -999  5.530869E-12  1.991412E-08  2.443185E-01  3.188916E-02  1.286869E-02  7.335584E-03
188  -999  -999  -999  -999  8.295222E-12  1.998903E-08  2.442113E-01  3.188258E-02  1.284993E-02  7.336847E-03
189  -999  -999  -999  -999  6.094073E-12  1.999838E-08  2.441929E-01  3.188154E-02  1.284621E-02  7.337092E-03
190  -999  -999  -999  -999  5.868313E-12  2.002389E-08  2.441497E-01  3.187671E-02  1.283874E-02  7.338209E-03
191  -999  -999  -999  -999  4.724632E-12  2.002810E-08  2.441424E-01  3.187548E-02  1.283725E-02  7.338251E-03
192  -999  -999  -999  -999  4.403540E-12  2.003764E-08  2.441274E-01  3.187396E-02  1.283427E-02  7.338324E-03
193  -999  -999  -999  -999  4.752352E-12  2.005941E-08  2.440944E-01  3.186876E-02  1.282827E-02  7.338776E-03
194  -999  -999  -999  -999  6.294938E-12  2.010702E-08  2.440314E-01  3.185192E-02  1.281628E-02  7.339352E-03
195  -999  -999  -999  -999  4.933130E-12  2.011747E-08  2.440206E-01  3.184860E-02  1.281390E-02  7.339447E-03
196  -999  -999  -999  -999  4.777194E-12  2.014077E-08  2.439957E-01  3.184138E-02  1.280917E-02  7.339682E-03
197  -999  -999  -999  -999  4.251253E-12  2.013800E-08  2.439906E-01  3.183916E-02  1.280822E-02  7.339705E-03
198  -999  -999  -999  -999  4.023550E-12  2.013821E-08  2.439806E-01  3.183503E-02  1.280632E-02  7.339815E-03
199  -999  -999  -999  -999  3.866227E-12  2.013931E-08  2.439785E-01  3.183418E-02  1.280594E-02  7.339838E-03
200  -999  -999  -999  -999  3.805541E-12  2.014183E-08  2.439744E-01  3.183254E-02  1.280517E-02  7.339859E-03
201  -999  -999  -999  -999  3.786168E-12  2.014679E-08  2.439664E-01  3.182929E-02  1.280365E-02  7.339932E-03
202  -999  -999  -999  -999  3.887279E-12  2.015723E-08  2.439502E-01  3.182295E-02  1.280060E-02  7.340114E-03
203  -999  -999  -999  -999  4.429497E-12  2.018094E-08  2.439128E-01  3.180681E-02  1.279448E-02  7.341085E-03
204  -999  -999  -999  -999  6.168902E-12  2.023136E-08  2.438337E-01  3.177333E-02  1.278232E-02  7.343651E-03
205  -999  -999  -999  -999  4.859995E-12  2.023943E-08  2.438201E-01  3.176753E-02  1.277990E-02  7.344191E-03
206  -999  -999  -999  -999  4.724259E-12  2.025727E-08  2.437866E-01  3.175547E-02  1.277507E-02  7.345481E-03
207  -999  -999  -999  -999  4.136684E-12  2.026088E-08  2.437800E-01  3.175253E-02  1.277411E-02  7.345731E-03
208  -999  -999  -999  -999  3.955685E-12  2.026764E-08  2.437668E-01  3.174720E-02  1.277218E-02  7.346311E-03
209  -999  -999  -999  -999  4.122318E-12  2.028206E-08  2.437389E-01  3.173801E-02  1.276833E-02  7.347655E-03
210  -999  -999  -999  -999  4.950856E-12  2.031396E-08  2.436779E-01  3.171939E-02  1.276063E-02  7.350887E-03
211  -999  -999  -999  -999  4.206973E-12  2.031928E-08  2.436675E-01  3.171610E-02  1.275910E-02  7.351395E-03
212  -999  -999  -999  -999  4.101173E-12  2.033119E-08  2.436449E-01  3.171079E-02  1.275604E-02  7.352652E-03
213  -999  -999  -999  -999  4.621124E-12  2.035771E-08  2.435936E-01  3.170031E-02  1.274990E-02  7.355883E-03
214  -999  -999  -999  -999  6.492135E-12  2.042533E-08  2.434916E-01  3.168572E-02  1.273774E-02  7.362285E-03
215  -999  -999  -999  -999  5.344875E-12  2.041530E-08  2.434897E-01  3.168544E-02  1.273750E-02  7.362396E-03
216  -999  -999  -999  -999  4.729618E-12  2.041400E-08  2.434858E-01  3.168487E-02  1.273701E-02  7.362626E-03
217  -999  -999  -999  -999  4.263588E-12  2.041751E-08  2.434786E-01  3.168381E-02  1.273604E-02  7.363052E-03
218  -999  -999  -999  -999  3.990837E-12  2.042473E-08  2.434640E-01  3.168206E-02  1.273411E-02  7.363984E-03
219  -999  -999  -999  -999  4.059208E-12  2.043994E-08  2.434321E-01  3.167951E-02  1.273025E-02  7.365927E-03
220  -999  -999  -999  -999  4.969901E-12  2.047319E-08  2.433676E-01  3.167368E-02  1.272254E-02  7.369789E-03
221  -999  -999  -999  -999  7.698609E-12  2.054742E-08  2.432522E-01  3.166778E-02  1.270726E-02  7.373682E-03
222  -999  -999  -999  -999  1.374863E-11  2.071575E-08  2.430665E-01  3.166650E-02  1.267766E-02  7.372373E-03
223  -999  -999  -999  -999  9.297830E-12  2.073411E-08  2.430353E-01  3.166792E-02  1.267184E-02  7.371642E-03
224  -999  -999  -999  -999  8.947980E-12  2.078455E-08  2.429730E-01  3.166998E-02  1.266013E-02  7.369121E-03
225  -999  -999  -999  -999  6.207289E-12  2.079176E-08  2.429628E-01  3.167117E-02  1.265779E-02  7.368532E-03
226  -999  -999  -999  -999  5.471955E-12  2.081047E-08  2.429404E-01  3.167392E-02  1.265310E-02  7.367072E-03
227  -999  -999  -999  -999  6.371638E-12  2.086641E-08  2.428987E-01  3.167800E-02  1.264373E-02  7.363957E-03
228  -999  -999  -999  -999  5.205854E-12  2.117272E-08  2.428914E-01  3.167920E-02  1.264186E-02  7.363321E-03
229  -999  -999  -999  -999  4.386322E-12  2.090342E-08  2.428764E-01  3.168191E-02  1.263816E-02  7.362316E-03
230  -999  -999  -999  -999  4.394874E-12  2.087499E-08  2.428731E-01  3.168233E-02  1.263741E-02  7.361950E-03
231  -999  -999  -999  -999  3.758798E-12  2.089647E-08  2.428672E-01  3.168314E-02  1.263591E-02  7.361385E-03
232  -999  -999  -999  -999  4.453508E-12  2.137928E-08  2.428552E-01  3.168521E-02  1.263290E-02  7.360412E-03
233  -999  -999  -999  -999  1.170218E-11  2.139650E-08  2.428340E-01  3.168835E-02  1.262693E-02  7.358733E-03
234  -999  -999  -999  -999  2.366681E-11  2.410679E-08  2.427806E-01  3.169053E-02  1.261498E-02  7.358314E-03
235  -999  -999  -999  -999  5.439800E-11  2.131628E-08  2.426781E-01  3.167529E-02  1.259172E-02  7.358088E-03
236  -999  -999  -999  -999  3.238191E-11  2.115641E-08  2.426778E-01  3.167524E-02  1.259167E-02  7.358039E-03
237  -999  -999  -999  -999  1.835176E-11  2.110303E-08  2.426769E-01  3.167514E-02  1.259158E-02  7.358046E-03
238  -999  -999  -999  -999  1.120865E-11  2.108490E-08  2.426746E-01  3.167493E-02  1.259139E-02  7.358335E-03
239  -999  -999  -999  -999  7.579338E-12  2.108060E-08  2.426704E-01  3.167455E-02  1.259102E-02  7.358976E-03
240  -999  -999  -999  -999  5.523904E-12  2.109228E-08  2.426647E-01  3.167375E-02  1.259028E-02  7.359514E-03
241  -999  -999  -999  -999  4.376671E-12  2.109161E-08  2.426560E-01  3.167227E-02  1.258878E-02  7.359982E-03
242  -999  -999  -999  -999  3.906851E-12  2.111715E-08  2.426399E-01  3.166937E-02  1.258577E-02  7.360425E-03
243  -999  -999  -999  -999  4.631330E-12  2.112665E-08  2.426062E-01  3.166024E-02  1.257969E-02  7.360623E-03
244  -999  -999  -999  -999  6.027326E-12  2.119145E-08  2.425313E-01  3.163606E-02  1.256750E-02  7.363949E-03
245  -999  -999  -999  -999  1.068973E-11  2.135909E-08  2.423514E-01  3.158309E-02  1.254374E-02  7.375332E-03
246  -999  -999  -999  -999  1.792315E-11  2.163501E-08  2.420045E-01  3.153072E-02  1.249840E-02  7.391726E-03
247  -999  -999  -999  -999  4.593546E-11  2.238991E-08  2.415381E-01  3.152279E-02  1.241307E-02  7.394383E-03
248  -999  -999  -999  -999  1.479937E-11  2.212380E-08  2.414439E-01  3.147540E-02  1.239508E-02  7.399459E-03
249  -999  -999  -999  -999  1.596573E-11  2.232316E-08  2.412242E-01  3.144787E-02  1.235876E-02  7.402722E-03
250  -999  -999  -999  -999  2.944859E-11  2.265319E-08  2.408302E-01  3.141540E-02  1.229034E-02  7.412819E-03
251  -999  -999  -999  -999  6.346695E-11  2.325640E-08  2.401920E-01  3.135224E-02  1.216345E-02  7.427280E-03
252  -999  -999  -999  -999  1.184824E-11  2.322234E-08  2.401842E-01  3.133972E-02  1.216080E-02  7.429401E-03
253  -999  -999  -999  -999  7.992467E-12  2.322389E-08  2.401478E-01  3.130948E-02  1.215543E-02  7.429769E-03
254  -999  -999  -999  -999  6.032882E-12  2.322477E-08  2.401407E-01  3.130308E-02  1.215436E-02  7.429771E-03
255  -999  -999  -999  -999  5.208266E-12  2.323052E-08  2.401268E-01  3.129269E-02  1.215218E-02  7.429828E-03
256  -999  -999  -999  -999  4.757758E-12  2.323000E-08  2.401238E-01  3.129050E-02  1.215174E-02  7.429845E-03
257  -999  -999  -999  -999  4.574903E-12  2.323213E-08  2.401183E-01  3.128648E-02  1.215087E-02  7.429871E-03
258  -999  -999  -999  -999  4.432372E-12  2.323615E-08  2.401080E-01  3.127957E-02  1.214911E-02  7.429993E-03
259  -999  -999  -999  -999  4.345930E-12  2.324627E-08  2.400870E-01  3.126704E-02  1.214557E-02  7.430580E-03
260  -999  -999  -999  -999  4.609376E-12  2.327532E-08  2.400419E-01  3.125231E-02  1.213845E-02  7.431839E-03
261  -999  -999  -999  -999  6.015532E-12  2.335055E-08  2.399504E-01  3.125533E-02  1.212438E-02  7.436721E-03
262  -999  -999  -999  -999  4.503033E-12  2.336080E-08  2.399334E-01  3.125657E-02  1.212160E-02  7.437778E-03
263  -999  -999  -999  -999  4.332723E-12  2.338766E-08  2.398971E-01  3.126084E-02  1.211607E-02  7.440391E-03
264  -999  -999  -999  -999  3.707578E-12  2.339173E-08  2.398902E-01  3.126179E-02  1.211496E-02  7.440951E-03
265  -999  -999  -999  -999  3.889593E-12  2.341623E-08  2.398771E-01  3.126397E-02  1.211275E-02  7.441857E-03
266  -999  -999  -999  -999  3.363966E-12  2.340501E-08  2.398743E-01  3.126433E-02  1.211232E-02  7.442123E-03
267  -999  -999  -999  -999  3.251868E-12  2.340724E-08  2.398687E-01  3.126510E-02  1.211143E-02  7.442578E-03