VARIABLES= iterations rms_res_mf1 rms_res_mf2 rms_res_mf3 rms_res_mf4 rms_res_mf5 rms_res_trb1 CL CD CDv CM
ZONE T = "USM3D-ME, MITAdapted_X0080K"
1  -999  -999  -999  -999  3.687742E-06  6.581124E-05  -4.537430E-03  1.917058E-01  1.917058E-01  2.546918E-04
2  -999  -999  -999  -999  3.086623E-06  5.877609E-05  5.970197E-01  4.747053E-01  1.914045E-01  -1.544842E-01
3  -999  -999  -999  -999  2.377605E-06  4.846258E-05  1.316086E+00  8.342366E-01  1.908068E-01  -3.355597E-01
4  -999  -999  -999  -999  1.819631E-06  3.575216E-05  1.791991E+00  1.088461E+00  1.896143E-01  -4.540841E-01
5  -999  -999  -999  -999  1.476726E-06  2.068913E-05  1.835499E+00  1.112072E+00  1.872296E-01  -4.661647E-01
6  -999  -999  -999  -999  1.197953E-06  5.603827E-06  1.739544E+00  1.049929E+00  1.825254E-01  -4.432771E-01
7  -999  -999  -999  -999  1.007522E-06  3.650988E-06  1.692895E+00  9.927885E-01  1.739782E-01  -4.343155E-01
8  -999  -999  -999  -999  8.098032E-07  2.839864E-06  1.604211E+00  8.759566E-01  1.593473E-01  -4.143103E-01
9  -999  -999  -999  -999  4.785494E-07  2.463262E-06  1.349786E+00  6.237925E-01  1.372490E-01  -3.290248E-01
10  -999  -999  -999  -999  2.170207E-07  2.076148E-06  8.470925E-01  2.956875E-01  1.095749E-01  -1.350358E-01
11  -999  -999  -999  -999  1.423229E-07  2.142129E-06  3.255470E-01  1.001141E-01  8.156628E-02  2.043393E-02
12  -999  -999  -999  -999  1.191443E-07  2.169680E-06  2.452788E-01  7.574717E-02  7.689524E-02  4.026964E-02
13  -999  -999  -999  -999  7.877237E-08  2.303825E-06  1.813316E-01  6.005971E-02  6.983152E-02  4.600788E-02
14  -999  -999  -999  -999  6.166520E-08  2.560909E-06  2.332208E-01  6.708462E-02  6.057677E-02  1.933521E-02
15  -999  -999  -999  -999  7.254332E-08  2.965013E-06  3.085516E-01  7.776045E-02  4.991218E-02  -9.577017E-04
16  -999  -999  -999  -999  7.000535E-08  3.556818E-06  3.111532E-01  7.059419E-02  3.931779E-02  -6.945043E-04
17  -999  -999  -999  -999  6.825784E-08  3.128765E-06  3.064707E-01  6.773724E-02  3.728942E-02  -6.658023E-05
18  -999  -999  -999  -999  5.998763E-08  3.072109E-06  2.888300E-01  5.713036E-02  2.966265E-02  1.929201E-03
19  -999  -999  -999  -999  5.776738E-08  2.707979E-06  2.822137E-01  5.440215E-02  2.747319E-02  2.388895E-03
20  -999  -999  -999  -999  5.441018E-08  2.738308E-06  2.759731E-01  5.202985E-02  2.553462E-02  2.811676E-03
21  -999  -999  -999  -999  2.439587E-08  2.736973E-06  2.726988E-01  5.055285E-02  2.482795E-02  3.251237E-03
22  -999  -999  -999  -999  2.984137E-08  2.945167E-06  2.691426E-01  4.923856E-02  2.382642E-02  3.171764E-03
23  -999  -999  -999  -999  2.837937E-08  3.448867E-06  2.633216E-01  4.802773E-02  2.260172E-02  3.538088E-03
24  -999  -999  -999  -999  1.478694E-08  3.508898E-06  2.618022E-01  4.742825E-02  2.236303E-02  3.602543E-03
25  -999  -999  -999  -999  1.752328E-08  3.730822E-06  2.598243E-01  4.691694E-02  2.194512E-02  3.545275E-03
26  -999  -999  -999  -999  2.037148E-08  4.696408E-06  2.565713E-01  4.637109E-02  2.125946E-02  3.703067E-03
27  -999  -999  -999  -999  2.364880E-08  5.642373E-06  2.522162E-01  4.522861E-02  2.005213E-02  3.779933E-03
28  -999  -999  -999  -999  1.212288E-08  5.780961E-06  2.507930E-01  4.478798E-02  1.981381E-02  3.985711E-03
29  -999  -999  -999  -999  1.494697E-08  6.512094E-06  2.490940E-01  4.438522E-02  1.936226E-02  4.053619E-03
30  -999  -999  -999  -999  1.163646E-08  6.661088E-06  2.486136E-01  4.426060E-02  1.928187E-02  4.073688E-03
31  -999  -999  -999  -999  1.369035E-08  6.997895E-06  2.479878E-01  4.412378E-02  1.912690E-02  4.082702E-03
32  -999  -999  -999  -999  1.157549E-08  7.699979E-06  2.465062E-01  4.366883E-02  1.872974E-02  4.159521E-03
33  -999  -999  -999  -999  1.604220E-08  9.287469E-06  2.442510E-01  4.322429E-02  1.809145E-02  4.443234E-03
34  -999  -999  -999  -999  1.341483E-08  1.220793E-05  2.404096E-01  4.186481E-02  1.680776E-02  4.828768E-03
35  -999  -999  -999  -999  1.971763E-08  1.383443E-05  2.374355E-01  4.091859E-02  1.584039E-02  5.271245E-03
36  -999  -999  -999  -999  1.239694E-08  2.027272E-05  2.326570E-01  3.941846E-02  1.433801E-02  5.966063E-03
37  -999  -999  -999  -999  7.912898E-09  2.080107E-05  2.313396E-01  3.903654E-02  1.401862E-02  6.173037E-03
38  -999  -999  -999  -999  7.664915E-09  2.311718E-05  2.295309E-01  3.846527E-02  1.346862E-02  6.379641E-03
39  -999  -999  -999  -999  3.837123E-09  2.330117E-05  2.290329E-01  3.823952E-02  1.330933E-02  6.455462E-03
40  -999  -999  -999  -999  4.494339E-09  2.395737E-05  2.283560E-01  3.808457E-02  1.314127E-02  6.522128E-03
41  -999  -999  -999  -999  4.904361E-09  2.374624E-05  2.271746E-01  3.778075E-02  1.281386E-02  6.638522E-03
42  -999  -999  -999  -999  4.110308E-09  2.362016E-05  2.269706E-01  3.770539E-02  1.274078E-02  6.660761E-03
43  -999  -999  -999  -999  3.149252E-09  2.354628E-05  2.264958E-01  3.753744E-02  1.259859E-02  6.704262E-03
44  -999  -999  -999  -999  4.338121E-09  2.343455E-05  2.257867E-01  3.738052E-02  1.238189E-02  6.798887E-03
45  -999  -999  -999  -999  3.856563E-09  2.135310E-05  2.246362E-01  3.695975E-02  1.195222E-02  6.910220E-03
46  -999  -999  -999  -999  4.366348E-09  1.897793E-05  2.231008E-01  3.643540E-02  1.136657E-02  7.085030E-03
47  -999  -999  -999  -999  2.856249E-09  1.794495E-05  2.227116E-01  3.632180E-02  1.125415E-02  7.134285E-03
48  -999  -999  -999  -999  2.454857E-09  1.651688E-05  2.221050E-01  3.611560E-02  1.104866E-02  7.180573E-03
49  -999  -999  -999  -999  2.860678E-09  1.396388E-05  2.213123E-01  3.583880E-02  1.073308E-02  7.252360E-03
50  -999  -999  -999  -999  1.827487E-09  1.328093E-05  2.211054E-01  3.576707E-02  1.066836E-02  7.274190E-03
51  -999  -999  -999  -999  1.617993E-09  1.212800E-05  2.207736E-01  3.566257E-02  1.055613E-02  7.298194E-03
52  -999  -999  -999  -999  1.849287E-09  1.022348E-05  2.203148E-01  3.549820E-02  1.037658E-02  7.327436E-03
53  -999  -999  -999  -999  1.139038E-09  9.869909E-06  2.202003E-01  3.545014E-02  1.033670E-02  7.335829E-03
54  -999  -999  -999  -999  1.126448E-09  9.181093E-06  2.200066E-01  3.539179E-02  1.026894E-02  7.352115E-03
55  -999  -999  -999  -999  1.168508E-09  7.975425E-06  2.197199E-01  3.528065E-02  1.015058E-02  7.364506E-03
56  -999  -999  -999  -999  7.315088E-10  7.764674E-06  2.196547E-01  3.525626E-02  1.013079E-02  7.367409E-03
57  -999  -999  -999  -999  7.091357E-10  7.326634E-06  2.195342E-01  3.521724E-02  1.008773E-02  7.375443E-03
58  -999  -999  -999  -999  8.329906E-10  6.568973E-06  2.193545E-01  3.514554E-02  1.000826E-02  7.381932E-03
59  -999  -999  -999  -999  5.264727E-10  6.414192E-06  2.193103E-01  3.512487E-02  9.991874E-03  7.386095E-03
60  -999  -999  -999  -999  6.153683E-10  6.155707E-06  2.192503E-01  3.510239E-02  9.965576E-03  7.384595E-03
61  -999  -999  -999  -999  7.105864E-10  5.623663E-06  2.191307E-01  3.506051E-02  9.914813E-03  7.391682E-03
62  -999  -999  -999  -999  4.213603E-10  5.495215E-06  2.190959E-01  3.504154E-02  9.902464E-03  7.393834E-03
63  -999  -999  -999  -999  4.589229E-10  5.287359E-06  2.190533E-01  3.502304E-02  9.882414E-03  7.392506E-03
64  -999  -999  -999  -999  5.174051E-10  4.892824E-06  2.189721E-01  3.499368E-02  9.846397E-03  7.395917E-03
65  -999  -999  -999  -999  6.795516E-10  4.243795E-06  2.188415E-01  3.493262E-02  9.781193E-03  7.399519E-03
66  -999  -999  -999  -999  3.833155E-10  4.126464E-06  2.188132E-01  3.491951E-02  9.769622E-03  7.400341E-03
67  -999  -999  -999  -999  3.770115E-10  3.898005E-06  2.187595E-01  3.489867E-02  9.746727E-03  7.402442E-03
68  -999  -999  -999  -999  4.298506E-10  3.495384E-06  2.186725E-01  3.486067E-02  9.704117E-03  7.404198E-03
69  -999  -999  -999  -999  2.789236E-10  3.417355E-06  2.186509E-01  3.484931E-02  9.695757E-03  7.405246E-03
70  -999  -999  -999  -999  2.639415E-10  3.257678E-06  2.186190E-01  3.483420E-02  9.680117E-03  7.404312E-03
71  -999  -999  -999  -999  3.108816E-10  2.978084E-06  2.185611E-01  3.480877E-02  9.650329E-03  7.405971E-03
72  -999  -999  -999  -999  2.163922E-10  2.922312E-06  2.185460E-01  3.480050E-02  9.644302E-03  7.406614E-03
73  -999  -999  -999  -999  2.419918E-10  2.822984E-06  2.185262E-01  3.479161E-02  9.634533E-03  7.405735E-03
74  -999  -999  -999  -999  2.748564E-10  2.628029E-06  2.184870E-01  3.477529E-02  9.615273E-03  7.406917E-03
75  -999  -999  -999  -999  1.851578E-10  2.584685E-06  2.184757E-01  3.476837E-02  9.610286E-03  7.407436E-03
76  -999  -999  -999  -999  1.957048E-10  2.510402E-06  2.184601E-01  3.476102E-02  9.602635E-03  7.407022E-03
77  -999  -999  -999  -999  2.117084E-10  2.364566E-06  2.184327E-01  3.474875E-02  9.588546E-03  7.407255E-03
78  -999  -999  -999  -999  1.548752E-10  2.334709E-06  2.184251E-01  3.474448E-02  9.585206E-03  7.407553E-03
79  -999  -999  -999  -999  1.613802E-10  2.280399E-06  2.184129E-01  3.473866E-02  9.579508E-03  7.407769E-03
80  -999  -999  -999  -999  1.695069E-10  2.173465E-06  2.183933E-01  3.472920E-02  9.569031E-03  7.407142E-03
81  -999  -999  -999  -999  2.029876E-10  1.987132E-06  2.183572E-01  3.471138E-02  9.548711E-03  7.407763E-03
82  -999  -999  -999  -999  1.466836E-10  1.950288E-06  2.183481E-01  3.470629E-02  9.544945E-03  7.408112E-03
83  -999  -999  -999  -999  1.383299E-10  1.878456E-06  2.183342E-01  3.469923E-02  9.537859E-03  7.407670E-03
84  -999  -999  -999  -999  1.790957E-10  1.762541E-06  2.183090E-01  3.468795E-02  9.524510E-03  7.408146E-03
85  -999  -999  -999  -999  1.279349E-10  1.733320E-06  2.183026E-01  3.468359E-02  9.521159E-03  7.408307E-03
86  -999  -999  -999  -999  1.351029E-10  1.683396E-06  2.182937E-01  3.467859E-02  9.515920E-03  7.407897E-03
87  -999  -999  -999  -999  1.455949E-10  1.586693E-06  2.182765E-01  3.467005E-02  9.506295E-03  7.407884E-03
88  -999  -999  -999  -999  1.103858E-10  1.566502E-06  2.182717E-01  3.466713E-02  9.503998E-03  7.408096E-03
89  -999  -999  -999  -999  1.140559E-10  1.530359E-06  2.182639E-01  3.466318E-02  9.500143E-03  7.408194E-03
90  -999  -999  -999  -999  1.188098E-10  1.459875E-06  2.182509E-01  3.465665E-02  9.493020E-03  7.407822E-03
91  -999  -999  -999  -999  1.493381E-10  1.336012E-06  2.182284E-01  3.464425E-02  9.479144E-03  7.407946E-03
92  -999  -999  -999  -999  1.043812E-10  1.310676E-06  2.182224E-01  3.464079E-02  9.476563E-03  7.408137E-03
93  -999  -999  -999  -999  9.857708E-11  1.262305E-06  2.182133E-01  3.463596E-02  9.471735E-03  7.407832E-03
94  -999  -999  -999  -999  1.256743E-10  1.185372E-06  2.181965E-01  3.462806E-02  9.462629E-03  7.408169E-03
95  -999  -999  -999  -999  9.155051E-11  1.165026E-06  2.181928E-01  3.462508E-02  9.460326E-03  7.408136E-03
96  -999  -999  -999  -999  9.585785E-11  1.131947E-06  2.181869E-01  3.462166E-02  9.456766E-03  7.407876E-03
97  -999  -999  -999  -999  1.024134E-10  1.067128E-06  2.181757E-01  3.461560E-02  9.450214E-03  7.407669E-03
98  -999  -999  -999  -999  7.941265E-11  1.053569E-06  2.181727E-01  3.461375E-02  9.448642E-03  7.407895E-03
99  -999  -999  -999  -999  8.169500E-11  1.029766E-06  2.181672E-01  3.461101E-02  9.446015E-03  7.408018E-03
100  -999  -999  -999  -999  8.451014E-11  9.824824E-07  2.181583E-01  3.460645E-02  9.441161E-03  7.407830E-03
101  -999  -999  -999  -999  7.014080E-11  9.728528E-07  2.181563E-01  3.460520E-02  9.440047E-03  7.407905E-03
102  -999  -999  -999  -999  7.169838E-11  9.552545E-07  2.181522E-01  3.460309E-02  9.438087E-03  7.408070E-03
103  -999  -999  -999  -999  7.280863E-11  9.199274E-07  2.181461E-01  3.459970E-02  9.434435E-03  7.407702E-03
104  -999  -999  -999  -999  9.381294E-11  8.643543E-07  2.181343E-01  3.459367E-02  9.427638E-03  7.407859E-03
105  -999  -999  -999  -999  6.937631E-11  8.487536E-07  2.181313E-01  3.459150E-02  9.425918E-03  7.407882E-03
106  -999  -999  -999  -999  7.251784E-11  8.247583E-07  2.181271E-01  3.458895E-02  9.423280E-03  7.407687E-03
107  -999  -999  -999  -999  7.784387E-11  7.775454E-07  2.181190E-01  3.458447E-02  9.418432E-03  7.407690E-03
108  -999  -999  -999  -999  6.079713E-11  7.673671E-07  2.181164E-01  3.458295E-02  9.417266E-03  7.407792E-03
109  -999  -999  -999  -999  6.236756E-11  7.501623E-07  2.181128E-01  3.458095E-02  9.415329E-03  7.407791E-03
110  -999  -999  -999  -999  6.437328E-11  7.158204E-07  2.181064E-01  3.457758E-02  9.411751E-03  7.407654E-03
111  -999  -999  -999  -999  5.387038E-11  7.087301E-07  2.181050E-01  3.457661E-02  9.410927E-03  7.407690E-03
112  -999  -999  -999  -999  5.494027E-11  6.959468E-07  2.181020E-01  3.457506E-02  9.409484E-03  7.407825E-03
113  -999  -999  -999  -999  5.564774E-11  6.701933E-07  2.180976E-01  3.457253E-02  9.406795E-03  7.407562E-03
114  -999  -999  -999  -999  6.376119E-11  6.240945E-07  2.180887E-01  3.456764E-02  9.401538E-03  7.407605E-03
115  -999  -999  -999  -999  5.056237E-11  6.148042E-07  2.180866E-01  3.456636E-02  9.400534E-03  7.407647E-03
116  -999  -999  -999  -999  4.833522E-11  5.966609E-07  2.180830E-01  3.456439E-02  9.398649E-03  7.407576E-03
117  -999  -999  -999  -999  5.689901E-11  5.664792E-07  2.180770E-01  3.456111E-02  9.395069E-03  7.407553E-03
118  -999  -999  -999  -999  4.569217E-11  5.588615E-07  2.180751E-01  3.456004E-02  9.394197E-03  7.407632E-03
119  -999  -999  -999  -999  4.700209E-11  5.461821E-07  2.180728E-01  3.455859E-02  9.392774E-03  7.407579E-03
120  -999  -999  -999  -999  4.872980E-11  5.209807E-07  2.180682E-01  3.455606E-02  9.390139E-03  7.407471E-03
121  -999  -999  -999  -999  4.108659E-11  5.157304E-07  2.180672E-01  3.455535E-02  9.389530E-03  7.407497E-03
122  -999  -999  -999  -999  4.183647E-11  5.064783E-07  2.180649E-01  3.455420E-02  9.388469E-03  7.407624E-03
123  -999  -999  -999  -999  4.230961E-11  4.877522E-07  2.180617E-01  3.455232E-02  9.386491E-03  7.407436E-03
124  -999  -999  -999  -999  3.756359E-11  4.839535E-07  2.180607E-01  3.455181E-02  9.386050E-03  7.407502E-03
125  -999  -999  -999  -999  3.804628E-11  4.769976E-07  2.180591E-01  3.455094E-02  9.385248E-03  7.407558E-03
126  -999  -999  -999  -999  3.806300E-11  4.628767E-07  2.180565E-01  3.454950E-02  9.383743E-03  7.407443E-03
127  -999  -999  -999  -999  4.494550E-11  4.394628E-07  2.180515E-01  3.454688E-02  9.380909E-03  7.407476E-03
128  -999  -999  -999  -999  3.651914E-11  4.333995E-07  2.180503E-01  3.454603E-02  9.380221E-03  7.407507E-03
129  -999  -999  -999  -999  3.758783E-11  4.236016E-07  2.180485E-01  3.454489E-02  9.379100E-03  7.407457E-03
130  -999  -999  -999  -999  3.892994E-11  4.040359E-07  2.180449E-01  3.454287E-02  9.377029E-03  7.407393E-03
131  -999  -999  -999  -999  3.304746E-11  3.999371E-07  2.180442E-01  3.454231E-02  9.376548E-03  7.407415E-03
132  -999  -999  -999  -999  3.359656E-11  3.928077E-07  2.180423E-01  3.454140E-02  9.375715E-03  7.407526E-03
133  -999  -999  -999  -999  3.394947E-11  3.782512E-07  2.180397E-01  3.453991E-02  9.374164E-03  7.407421E-03
134  -999  -999  -999  -999  3.022551E-11  3.753169E-07  2.180390E-01  3.453951E-02  9.373817E-03  7.407449E-03
135  -999  -999  -999  -999  3.058669E-11  3.699902E-07  2.180378E-01  3.453883E-02  9.373190E-03  7.407481E-03
136  -999  -999  -999  -999  3.055418E-11  3.590826E-07  2.180358E-01  3.453769E-02  9.372011E-03  7.407396E-03
137  -999  -999  -999  -999  3.622442E-11  3.411367E-07  2.180317E-01  3.453562E-02  9.369792E-03  7.407451E-03
138  -999  -999  -999  -999  2.933187E-11  3.362328E-07  2.180309E-01  3.453494E-02  9.369251E-03  7.407454E-03
139  -999  -999  -999  -999  3.015841E-11  3.286627E-07  2.180295E-01  3.453405E-02  9.368376E-03  7.407417E-03
140  -999  -999  -999  -999  3.127691E-11  3.134141E-07  2.180266E-01  3.453245E-02  9.366758E-03  7.407376E-03
141  -999  -999  -999  -999  2.652971E-11  3.101651E-07  2.180261E-01  3.453201E-02  9.366381E-03  7.407394E-03
142  -999  -999  -999  -999  2.695829E-11  3.046904E-07  2.180246E-01  3.453129E-02  9.365731E-03  7.407485E-03
143  -999  -999  -999  -999  2.720871E-11  2.933435E-07  2.180226E-01  3.453012E-02  9.364521E-03  7.407423E-03
144  -999  -999  -999  -999  2.425669E-11  2.910184E-07  2.180220E-01  3.452980E-02  9.364250E-03  7.407435E-03
145  -999  -999  -999  -999  2.452876E-11  2.868946E-07  2.180210E-01  3.452926E-02  9.363760E-03  7.407469E-03
146  -999  -999  -999  -999  2.448872E-11  2.783750E-07  2.180195E-01  3.452837E-02  9.362841E-03  7.407393E-03
147  -999  -999  -999  -999  2.923292E-11  2.645131E-07  2.180163E-01  3.452673E-02  9.361110E-03  7.407454E-03
148  -999  -999  -999  -999  2.350270E-11  2.606585E-07  2.180156E-01  3.452621E-02  9.360686E-03  7.407454E-03
149  -999  -999  -999  -999  2.415052E-11  2.547928E-07  2.180145E-01  3.452551E-02  9.360005E-03  7.407418E-03
150  -999  -999  -999  -999  2.504815E-11  2.428808E-07  2.180122E-01  3.452425E-02  9.358745E-03  7.407416E-03
151  -999  -999  -999  -999  2.125054E-11  2.403196E-07  2.180118E-01  3.452391E-02  9.358451E-03  7.407424E-03
152  -999  -999  -999  -999  2.156790E-11  2.360791E-07  2.180106E-01  3.452333E-02  9.357945E-03  7.407493E-03
153  -999  -999  -999  -999  2.177819E-11  2.271919E-07  2.180090E-01  3.452242E-02  9.357005E-03  7.407449E-03
154  -999  -999  -999  -999  1.940823E-11  2.253742E-07  2.180086E-01  3.452216E-02  9.356793E-03  7.407457E-03
155  -999  -999  -999  -999  1.961911E-11  2.221958E-07  2.180078E-01  3.452174E-02  9.356412E-03  7.407487E-03
156  -999  -999  -999  -999  1.958239E-11  2.155078E-07  2.180066E-01  3.452104E-02  9.355698E-03  7.407426E-03
157  -999  -999  -999  -999  1.812001E-11  2.141595E-07  2.180062E-01  3.452086E-02  9.355542E-03  7.407445E-03
158  -999  -999  -999  -999  1.825391E-11  2.116864E-07  2.180056E-01  3.452054E-02  9.355253E-03  7.407463E-03
159  -999  -999  -999  -999  1.811979E-11  2.065676E-07  2.180045E-01  3.451999E-02  9.354705E-03  7.407463E-03
160  -999  -999  -999  -999  2.018446E-11  1.978573E-07  2.180029E-01  3.451900E-02  9.353663E-03  7.407434E-03
161  -999  -999  -999  -999  1.749150E-11  1.956514E-07  2.180023E-01  3.451870E-02  9.353419E-03  7.407463E-03
162  -999  -999  -999  -999  1.781198E-11  1.920679E-07  2.180014E-01  3.451823E-02  9.353002E-03  7.407507E-03
163  -999  -999  -999  -999  1.807151E-11  1.847360E-07  2.180001E-01  3.451747E-02  9.352228E-03  7.407459E-03
164  -999  -999  -999  -999  1.616479E-11  1.832076E-07  2.179998E-01  3.451727E-02  9.352054E-03  7.407466E-03
165  -999  -999  -999  -999  1.634205E-11  1.806109E-07  2.179991E-01  3.451692E-02  9.351741E-03  7.407501E-03
166  -999  -999  -999  -999  1.630458E-11  1.751098E-07  2.179981E-01  3.451634E-02  9.351154E-03  7.407460E-03
167  -999  -999  -999  -999  1.510840E-11  1.739999E-07  2.179978E-01  3.451618E-02  9.351026E-03  7.407479E-03
168  -999  -999  -999  -999  1.521267E-11  1.719870E-07  2.179973E-01  3.451592E-02  9.350789E-03  7.407490E-03
169  -999  -999  -999  -999  1.509709E-11  1.677860E-07  2.179964E-01  3.451547E-02  9.350339E-03  7.407491E-03
170  -999  -999  -999  -999  1.683414E-11  1.606331E-07  2.179950E-01  3.451465E-02  9.349486E-03  7.407467E-03
171  -999  -999  -999  -999  1.457165E-11  1.588248E-07  2.179945E-01  3.451440E-02  9.349285E-03  7.407499E-03
172  -999  -999  -999  -999  1.482965E-11  1.559218E-07  2.179938E-01  3.451402E-02  9.348945E-03  7.407531E-03
173  -999  -999  -999  -999  1.507476E-11  1.499248E-07  2.179927E-01  3.451340E-02  9.348312E-03  7.407495E-03
174  -999  -999  -999  -999  1.346895E-11  1.486799E-07  2.179925E-01  3.451323E-02  9.348169E-03  7.407502E-03
175  -999  -999  -999  -999  1.361359E-11  1.465905E-07  2.179919E-01  3.451294E-02  9.347913E-03  7.407534E-03
176  -999  -999  -999  -999  1.358570E-11  1.420772E-07  2.179910E-01  3.451247E-02  9.347434E-03  7.407513E-03
177  -999  -999  -999  -999  1.258023E-11  1.411622E-07  2.179908E-01  3.451234E-02  9.347329E-03  7.407523E-03
178  -999  -999  -999  -999  1.266581E-11  1.395243E-07  2.179904E-01  3.451212E-02  9.347135E-03  7.407527E-03
179  -999  -999  -999  -999  1.256915E-11  1.360970E-07  2.179897E-01  3.451175E-02  9.346768E-03  7.407521E-03
180  -999  -999  -999  -999  1.407816E-11  1.303317E-07  2.179885E-01  3.451107E-02  9.346072E-03  7.407512E-03
181  -999  -999  -999  -999  1.213016E-11  1.288061E-07  2.179881E-01  3.451087E-02  9.345908E-03  7.407547E-03
182  -999  -999  -999  -999  1.234889E-11  1.264410E-07  2.179876E-01  3.451058E-02  9.345631E-03  7.407541E-03
183  -999  -999  -999  -999  1.256034E-11  1.215242E-07  2.179866E-01  3.451005E-02  9.345116E-03  7.407544E-03
184  -999  -999  -999  -999  1.120792E-11  1.204966E-07  2.179864E-01  3.450992E-02  9.344999E-03  7.407548E-03
185  -999  -999  -999  -999  1.132217E-11  1.187796E-07  2.179860E-01  3.450968E-02  9.344791E-03  7.407577E-03
186  -999  -999  -999  -999  1.130212E-11  1.150656E-07  2.179852E-01  3.450929E-02  9.344402E-03  7.407568E-03
187  -999  -999  -999  -999  1.046214E-11  1.143151E-07  2.179851E-01  3.450918E-02  9.344316E-03  7.407569E-03
188  -999  -999  -999  -999  1.053278E-11  1.129983E-07  2.179847E-01  3.450901E-02  9.344159E-03  7.407578E-03
189  -999  -999  -999  -999  1.045531E-11  1.101855E-07  2.179842E-01  3.450871E-02  9.343861E-03  7.407568E-03
190  -999  -999  -999  -999  1.177657E-11  1.055424E-07  2.179831E-01  3.450816E-02  9.343295E-03  7.407573E-03
191  -999  -999  -999  -999  1.008786E-11  1.042741E-07  2.179828E-01  3.450799E-02  9.343161E-03  7.407587E-03
192  -999  -999  -999  -999  1.027300E-11  1.023406E-07  2.179824E-01  3.450775E-02  9.342937E-03  7.407582E-03
193  -999  -999  -999  -999  1.044966E-11  9.827174E-08  2.179816E-01  3.450732E-02  9.342519E-03  7.407601E-03
194  -999  -999  -999  -999  9.318461E-12  9.741901E-08  2.179815E-01  3.450721E-02  9.342424E-03  7.407596E-03
195  -999  -999  -999  -999  9.409734E-12  9.602051E-08  2.179811E-01  3.450701E-02  9.342256E-03  7.407620E-03
196  -999  -999  -999  -999  9.393347E-12  9.299588E-08  2.179805E-01  3.450670E-02  9.341940E-03  7.407613E-03
197  -999  -999  -999  -999  8.694298E-12  9.238190E-08  2.179803E-01  3.450661E-02  9.341871E-03  7.407614E-03
198  -999  -999  -999  -999  8.751818E-12  9.131588E-08  2.179800E-01  3.450647E-02  9.341743E-03  7.407624E-03
199  -999  -999  -999  -999  8.689676E-12  8.902039E-08  2.179796E-01  3.450622E-02  9.341502E-03  7.407612E-03
200  -999  -999  -999  -999  8.253010E-12  8.855767E-08  2.179795E-01  3.450616E-02  9.341450E-03  7.407614E-03
201  -999  -999  -999  -999  2.028270E-06  8.771928E-08  2.175362E-01  3.448776E-02  9.341967E-03  7.390907E-03
202  -999  -999  -999  -999  1.918429E-06  3.111371E-06  2.175419E-01  3.448859E-02  9.341915E-03  7.391312E-03
203  -999  -999  -999  -999  1.726755E-06  8.884783E-06  2.175546E-01  3.449006E-02  9.341812E-03  7.392362E-03
204  -999  -999  -999  -999  1.686052E-06  1.015763E-05  2.175575E-01  3.449037E-02  9.341789E-03  7.392607E-03
205  -999  -999  -999  -999  1.602079E-06  1.286905E-05  2.175641E-01  3.449100E-02  9.341738E-03  7.393186E-03
206  -999  -999  -999  -999  1.480773E-06  1.700408E-05  2.175753E-01  3.449179E-02  9.341656E-03  7.394267E-03
207  -999  -999  -999  -999  1.283280E-06  2.441370E-05  2.175979E-01  3.449210E-02  9.341492E-03  7.396748E-03
208  -999  -999  -999  -999  1.009914E-06  3.651470E-05  2.176374E-01  3.448685E-02  9.341166E-03  7.402152E-03
209  -999  -999  -999  -999  7.109537E-07  5.351543E-05  2.176777E-01  3.445610E-02  9.340524E-03  7.411229E-03
210  -999  -999  -999  -999  4.635965E-07  7.266393E-05  2.176224E-01  3.435016E-02  9.339263E-03  7.419594E-03
211  -999  -999  -999  -999  2.999645E-07  8.884998E-05  2.172570E-01  3.407655E-02  9.336792E-03  7.434608E-03
212  -999  -999  -999  -999  2.072127E-07  9.825988E-05  2.164945E-01  3.339324E-02  9.331978E-03  7.535844E-03
213  -999  -999  -999  -999  1.628193E-07  9.994941E-05  2.152253E-01  3.179643E-02  9.322879E-03  7.994118E-03
214  -999  -999  -999  -999  1.249005E-07  9.255021E-05  2.115674E-01  2.882309E-02  9.306595E-03  9.621155E-03
215  -999  -999  -999  -999  6.620817E-08  8.133794E-05  2.050416E-01  2.432798E-02  9.279590E-03  1.325844E-02
216  -999  -999  -999  -999  8.931451E-08  7.398351E-05  2.001192E-01  1.937637E-02  9.240707E-03  1.541116E-02
217  -999  -999  -999  -999  5.270984E-08  7.611252E-05  1.943924E-01  1.614970E-02  9.195259E-03  1.494891E-02
218  -999  -999  -999  -999  5.400573E-08  9.548567E-05  1.947054E-01  1.851200E-02  9.150182E-03  1.379172E-02
219  -999  -999  -999  -999  1.490522E-08  1.178256E-04  1.990878E-01  2.105101E-02  9.115363E-03  1.345569E-02
220  -999  -999  -999  -999  4.270684E-08  1.099637E-04  2.004887E-01  2.075676E-02  9.128844E-03  1.392223E-02
221  -999  -999  -999  -999  5.207592E-08  6.320921E-05  2.024053E-01  2.040298E-02  9.249042E-03  1.403892E-02
222  -999  -999  -999  -999  2.745023E-08  4.036941E-05  2.030158E-01  2.039465E-02  9.256666E-03  1.397865E-02
223  -999  -999  -999  -999  2.272622E-08  3.869072E-05  2.032219E-01  2.039263E-02  9.268463E-03  1.395634E-02
224  -999  -999  -999  -999  9.708260E-09  3.599187E-05  2.033124E-01  2.037438E-02  9.287710E-03  1.397973E-02
225  -999  -999  -999  -999  1.436237E-08  3.167285E-05  2.036386E-01  2.034134E-02  9.307740E-03  1.400082E-02
226  -999  -999  -999  -999  1.691948E-08  2.455652E-05  2.043105E-01  2.036767E-02  9.353828E-03  1.398695E-02
227  -999  -999  -999  -999  8.286205E-09  1.572203E-05  2.055448E-01  2.037385E-02  9.453655E-03  1.401527E-02
228  -999  -999  -999  -999  3.699533E-09  1.322827E-05  2.078722E-01  2.042663E-02  9.623625E-03  1.385668E-02
229  -999  -999  -999  -999  3.457270E-09  1.245464E-05  2.083668E-01  2.045022E-02  9.658991E-03  1.380752E-02
230  -999  -999  -999  -999  1.292322E-09  1.257585E-05  2.084469E-01  2.045327E-02  9.665583E-03  1.380724E-02
231  -999  -999  -999  -999  1.506159E-09  1.291370E-05  2.086295E-01  2.046130E-02  9.679836E-03  1.379152E-02
232  -999  -999  -999  -999  2.532091E-09  1.379206E-05  2.089993E-01  2.048346E-02  9.707259E-03  1.375262E-02
233  -999  -999  -999  -999  2.500289E-09  1.600388E-05  2.096730E-01  2.051131E-02  9.760580E-03  1.368528E-02
234  -999  -999  -999  -999  3.021600E-09  1.938073E-05  2.110085E-01  2.057521E-02  9.852389E-03  1.351368E-02
235  -999  -999  -999  -999  8.662037E-09  2.192120E-05  2.133069E-01  2.072283E-02  1.001490E-02  1.314220E-02
236  -999  -999  -999  -999  3.132455E-09  1.962177E-05  2.137790E-01  2.074581E-02  1.003731E-02  1.305502E-02
237  -999  -999  -999  -999  3.735094E-09  1.896382E-05  2.146057E-01  2.080962E-02  1.010079E-02  1.290548E-02
238  -999  -999  -999  -999  4.822798E-09  1.705343E-05  2.160259E-01  2.090065E-02  1.018034E-02  1.263617E-02
239  -999  -999  -999  -999  5.639820E-09  1.345107E-05  2.182258E-01  2.107847E-02  1.031538E-02  1.216996E-02
240  -999  -999  -999  -999  2.048162E-09  1.027185E-05  2.186649E-01  2.111763E-02  1.034175E-02  1.206812E-02
241  -999  -999  -999  -999  2.819890E-09  8.674542E-06  2.193811E-01  2.118194E-02  1.038730E-02  1.190501E-02
242  -999  -999  -999  -999  2.026208E-09  6.491344E-06  2.205227E-01  2.128199E-02  1.045120E-02  1.163823E-02
243  -999  -999  -999  -999  1.502426E-09  5.804983E-06  2.206979E-01  2.129791E-02  1.046288E-02  1.159741E-02
244  -999  -999  -999  -999  1.134417E-09  4.977655E-06  2.210621E-01  2.133515E-02  1.048716E-02  1.150845E-02
245  -999  -999  -999  -999  1.820932E-09  3.758982E-06  2.216026E-01  2.138613E-02  1.051937E-02  1.137400E-02
246  -999  -999  -999  -999  8.473130E-10  3.548011E-06  2.217298E-01  2.139885E-02  1.052603E-02  1.134120E-02
247  -999  -999  -999  -999  8.706105E-10  3.139803E-06  2.219233E-01  2.141787E-02  1.053767E-02  1.129297E-02
248  -999  -999  -999  -999  9.925801E-10  2.402165E-06  2.222303E-01  2.144938E-02  1.055681E-02  1.121482E-02
249  -999  -999  -999  -999  4.408034E-10  2.284565E-06  2.222908E-01  2.145531E-02  1.056007E-02  1.119918E-02
250  -999  -999  -999  -999  5.176642E-10  2.052475E-06  2.223934E-01  2.146638E-02  1.056706E-02  1.117295E-02
251  -999  -999  -999  -999  6.816806E-10  1.646894E-06  2.225699E-01  2.148331E-02  1.057658E-02  1.112718E-02
252  -999  -999  -999  -999  3.143671E-10  1.580682E-06  2.226085E-01  2.148700E-02  1.057844E-02  1.111682E-02
253  -999  -999  -999  -999  4.654382E-10  1.462156E-06  2.226710E-01  2.149315E-02  1.058208E-02  1.110082E-02
254  -999  -999  -999  -999  3.710243E-10  1.230655E-06  2.227832E-01  2.150516E-02  1.058891E-02  1.107127E-02
255  -999  -999  -999  -999  5.725358E-10  9.020034E-07  2.229454E-01  2.152187E-02  1.059820E-02  1.102834E-02
256  -999  -999  -999  -999  2.466098E-10  8.552002E-07  2.229807E-01  2.152537E-02  1.060010E-02  1.101894E-02
257  -999  -999  -999  -999  2.424695E-10  7.542122E-07  2.230369E-01  2.153126E-02  1.060340E-02  1.100409E-02
258  -999  -999  -999  -999  2.787673E-10  5.745348E-07  2.231232E-01  2.154063E-02  1.060875E-02  1.098160E-02
259  -999  -999  -999  -999  1.217811E-10  5.479003E-07  2.231403E-01  2.154250E-02  1.060972E-02  1.097690E-02
260  -999  -999  -999  -999  1.322667E-10  4.931162E-07  2.231702E-01  2.154584E-02  1.061165E-02  1.096912E-02
261  -999  -999  -999  -999  1.734529E-10  3.955099E-07  2.232170E-01  2.155074E-02  1.061435E-02  1.095679E-02
262  -999  -999  -999  -999  6.724417E-11  3.797325E-07  2.232275E-01  2.155192E-02  1.061493E-02  1.095403E-02
263  -999  -999  -999  -999  7.974721E-11  3.507562E-07  2.232440E-01  2.155370E-02  1.061594E-02  1.094972E-02
264  -999  -999  -999  -999  9.498679E-11  2.946218E-07  2.232721E-01  2.155693E-02  1.061782E-02  1.094242E-02
265  -999  -999  -999  -999  4.634356E-11  2.852490E-07  2.232776E-01  2.155751E-02  1.061815E-02  1.094094E-02
266  -999  -999  -999  -999  7.219492E-11  2.661485E-07  2.232879E-01  2.155873E-02  1.061882E-02  1.093831E-02
267  -999  -999  -999  -999  7.959689E-11  2.328266E-07  2.233054E-01  2.156087E-02  1.062010E-02  1.093381E-02