TITLE     = "Surface mesh and solution"
VARIABLES = "x"
"y"
"z"
"cfx"
"Cp"
ZONE T="Slice: Y=-0.001"
STRANDID=0, SOLUTIONTIME=0
Nodes=438, Elements=437, ZONETYPE=FELineSeg
DATAPACKING=POINT
DT=(DOUBLE DOUBLE DOUBLE DOUBLE DOUBLE )
0.1105894400	-0.0009999500	0.0498864800	0.0023671143	-0.0963819470
0.1283509000	-0.0009999500	0.0478640910	0.0023735969	-0.0809944120
0.1324332500	-0.0009999500	0.0473919360	0.0023872300	-0.0779052900
0.1367040000	-0.0009999500	0.0468733240	0.0023541492	-0.0731610800
0.1525318900	-0.0009999500	0.0449472780	0.0021804837	-0.0574426950
0.1648541100	-0.0009999500	0.0433723850	0.0021017414	-0.0448267240
0.1713143600	-0.0009999500	0.0425483580	0.0020265432	-0.0388609920
0.1763383900	-0.0009999500	0.0418771240	0.0020338711	-0.0338344050
0.1914348800	-0.0009999500	0.0398615560	0.0019881102	-0.0205185380
0.2044763100	-0.0009999500	0.0380425680	0.0019016650	-0.0099670356
0.2170828400	-0.0009999500	0.0362726710	0.0018703663	0.0003342101
0.2311166500	-0.0009999500	0.0342059060	0.0018345374	0.0107212820
0.2440618100	-0.0009999500	0.0323147850	0.0017581790	0.0215147940
0.2615229500	-0.0009999500	0.0296624080	0.0017405097	0.0350700650
0.2655688500	-0.0009999500	0.0290430770	0.0017128626	0.0384605420
0.2680073100	-0.0009999500	0.0286590720	0.0017324644	0.0407669690
0.2851646800	-0.0009999500	0.0259654150	0.0016850769	0.0582971130
0.2902917600	-0.0009999500	0.0251507000	0.0016806774	0.0615270320
0.3052528800	-0.0009999500	0.0227321400	0.0016386697	0.0736822040
0.3066334700	-0.0009999500	0.0225086230	0.0016214038	0.0750827710
0.3235958200	-0.0009999500	0.0197018310	0.0014039094	0.0913454440
0.3293988700	-0.0009999500	0.0187382310	0.0013809572	0.0954820290
0.3528093100	-0.0009999500	0.0147460030	0.0012903394	0.1133461900
0.3614829200	-0.0009999500	0.0132621140	0.0012722968	0.1203567100
0.3700018800	-0.0009999500	0.0117726780	0.0012569764	0.1285942800
0.3939641100	-0.0009999500	0.0075315237	0.0011761734	0.1486709600
0.4129748000	-0.0009999500	0.0040774015	0.0011303805	0.1618811000
0.4374414100	-0.0009999500	-0.0004008294	0.0009985968	0.1802452100
0.4688942400	-0.0009999500	-0.0063449680	0.0009472480	0.2042133200
0.4791127700	-0.0009999500	-0.0082844654	0.0009388446	0.2118320200
0.4881261900	-0.0009999500	-0.0100502390	0.0009559971	0.2172494700
0.5183335500	-0.0009999500	-0.0159420500	0.0009125039	0.2379598300
0.5380544100	-0.0009999500	-0.0198887360	0.0008714220	0.2541533400
0.5458551000	-0.0009999500	-0.0214492940	0.0008547247	0.2598040400
0.5644848900	-0.0009999500	-0.0252599770	0.0007817337	0.2729941000
0.5874732100	-0.0009999500	-0.0299951940	0.0007848433	0.2870762100
0.6001532700	-0.0009999500	-0.0326577240	0.0007546594	0.2983261300
0.6100567000	-0.0009999500	-0.0347410250	0.0006974035	0.3082299200
0.6152464200	-0.0009999500	-0.0358480700	0.0006724715	0.3122521900
0.6376114500	-0.0009999500	-0.0406423170	0.0005456012	0.3300443600
0.6471481900	-0.0009999500	-0.0427134970	0.0005017221	0.3373704900
0.6700145600	-0.0009999500	-0.0477379860	0.0004414151	0.3552673800
0.6709584000	-0.0009999500	-0.0479459020	0.0004401452	0.3560411600
0.6713817700	-0.0009999500	-0.0480393580	0.0004379009	0.3563914600
0.6720510100	-0.0009999500	-0.0481892860	0.0004354879	0.3570553100
0.6908004300	-0.0009999500	-0.0523927730	0.0003706011	0.3749960400
0.6982093500	-0.0009999500	-0.0540686030	0.0003684437	0.3835886400
0.7069879800	-0.0009999500	-0.0560695190	0.0003266637	0.3943301700
0.7110131400	-0.0009999500	-0.0569907910	0.0002725145	0.3991125200
0.7180645500	-0.0009999500	-0.0586042630	0.0002271776	0.4069834100
0.7243883600	-0.0009999500	-0.0600628740	0.0002421524	0.4144398000
0.7286168300	-0.0009999500	-0.0610444170	0.0002073387	0.4191944600
0.7344796100	-0.0009999500	-0.0624053330	0.0002619324	0.4289740000
0.7355908200	-0.0009999500	-0.0626659540	0.0002171872	0.4311015000
0.7397073500	-0.0009999500	-0.0636254620	0.0001609535	0.4393653900
0.7398859300	-0.0009999500	-0.0636673420	0.0001541548	0.4397113900
0.7432941800	-0.0009999500	-0.0644639800	0.0001073384	0.4496316000
0.7433586100	-0.0009999500	-0.0644791720	0.0001044578	0.4497880600
0.7433899000	-0.0009999500	-0.0644865260	0.0001034504	0.4498692800
0.7449726500	-0.0009999500	-0.0648571700	0.0000233917	0.4550666800
0.7460962500	-0.0009999500	-0.0651205410	0.0000169669	0.4583089400
0.7461067400	-0.0009999500	-0.0651230070	0.0000163602	0.4583697900
0.7468395800	-0.0009999500	-0.0652948990	-0.0000270280	0.4616654800
0.7468442900	-0.0009999500	-0.0652960090	-0.0000279004	0.4616639600
0.7470343700	-0.0009999500	-0.0653406010	-0.0000154035	0.4651804000
0.7470349100	-0.0009999500	-0.0653407350	-0.0000154821	0.4651749400
0.7470925500	-0.0009999500	-0.0653542580	-0.0000127357	0.4664874100
0.7471263400	-0.0009999500	-0.0653621850	0.0000635962	0.4675936100
0.7471264000	-0.0009999500	-0.0653622080	0.0000636608	0.4675869600
0.7471264600	-0.0009999500	-0.0653622150	0.0000640718	0.4675912900
0.7471374300	-0.0009999500	-0.0653647930	-0.0000090766	0.4670502800
0.7471460100	-0.0009999500	-0.0653668050	0.0001326188	0.4677465000
0.7471384400	-0.0009999500	-0.0653672370	0.0001619390	0.4679746900
0.7471222900	-0.0009999500	-0.0653681530	0.0001116732	0.4674751800
0.7471221100	-0.0009999500	-0.0653681610	0.0001120376	0.4674781300
0.7470814600	-0.0009999500	-0.0653704630	0.0000644825	0.4665678400
0.7470809800	-0.0009999500	-0.0653704930	0.0000640270	0.4665649800
0.7470011100	-0.0009999500	-0.0653750080	0.0000768604	0.4654049300
0.7470000400	-0.0009999500	-0.0653750670	0.0000777258	0.4653989700
0.7468181300	-0.0009999500	-0.0653853570	0.0000662209	0.4621107300
0.7468115700	-0.0009999500	-0.0653857370	0.0000677096	0.4620656400
0.7461705200	-0.0009999500	-0.0654219690	0.0000724852	0.4572852300
0.7450496600	-0.0009999500	-0.0654851870	0.0001717412	0.4539334500
0.7450333200	-0.0009999500	-0.0654861110	0.0001736559	0.4538625800
0.7427356200	-0.0009999500	-0.0656149690	0.0002701624	0.4459565900
0.7427129100	-0.0009999500	-0.0656162570	0.0002718343	0.4458909900
0.7426602200	-0.0009999500	-0.0656192380	0.0002750076	0.4457203400
0.7387014600	-0.0009999500	-0.0658391040	0.0002292941	0.4336993400
0.7385965000	-0.0009999500	-0.0658449460	0.0002318415	0.4334424400
0.7311674400	-0.0009999500	-0.0662503170	0.0003357330	0.4218221000
0.7310128800	-0.0009999500	-0.0662586990	0.0003344938	0.4215804900
0.7234195500	-0.0009999500	-0.0666633170	0.0003926957	0.4111429500
0.7232568300	-0.0009999500	-0.0666719530	0.0003948376	0.4108747800
0.7178731000	-0.0009999500	-0.0669529740	0.0002505092	0.3994540600
0.7068461200	-0.0009999500	-0.0675134660	0.0004213670	0.3892991500
0.7065845100	-0.0009999500	-0.0675267730	0.0004251092	0.3890450300
0.6965714100	-0.0009999500	-0.0680183320	0.0004736495	0.3787771500
0.6963824000	-0.0009999500	-0.0680275260	0.0004743758	0.3785299700
0.6894677300	-0.0009999500	-0.0683573930	0.0004548444	0.3705328700
0.6891651200	-0.0009999500	-0.0683717800	0.0004663248	0.3702052200
0.6771295700	-0.0009999500	-0.0689272660	0.0004372589	0.3594594300
0.6766772900	-0.0009999500	-0.0689476060	0.0004334072	0.3591221300
0.6686499700	-0.0009999500	-0.0693049800	0.0005339035	0.3526855400
0.6610909100	-0.0009999500	-0.0696320460	0.0006852537	0.3474551100
0.6608602400	-0.0009999500	-0.0696419330	0.0006811170	0.3472843200
0.6607501500	-0.0009999500	-0.0696465820	0.0006803678	0.3471853400
0.6518018800	-0.0009999500	-0.0700221060	0.0006482207	0.3399877300
0.6516755800	-0.0009999500	-0.0700272550	0.0006474932	0.3398963500
0.6428915900	-0.0009999500	-0.0703837870	0.0008073302	0.3339834800
0.6427271400	-0.0009999500	-0.0703902240	0.0008096149	0.3338803400
0.6325711000	-0.0009999500	-0.0707876240	0.0004351156	0.3280143700
0.6213940400	-0.0009999500	-0.0712067110	0.0007586723	0.3208293000
0.6212500300	-0.0009999500	-0.0712121050	0.0007552941	0.3207372100
0.6211618200	-0.0009999500	-0.0712153020	0.0007587217	0.3206892300
0.6100130700	-0.0009999500	-0.0716144290	0.0006713870	0.3141815100
0.6099170400	-0.0009999500	-0.0716178420	0.0006673737	0.3141139400
0.6098047500	-0.0009999500	-0.0716216860	0.0006707110	0.3140533000
0.5947081400	-0.0009999500	-0.0721323490	0.0006689161	0.3065953600
0.5945115700	-0.0009999500	-0.0721387340	0.0006718011	0.3064996600
0.5838553300	-0.0009999500	-0.0724787270	0.0006801472	0.3008383500
0.5836185800	-0.0009999500	-0.0724859540	0.0006834007	0.3007265600
0.5739376500	-0.0009999500	-0.0727801920	0.0005269510	0.2961389100
0.5650991200	-0.0009999500	-0.0730366930	0.0008515518	0.2912035000
0.5649188200	-0.0009999500	-0.0730420350	0.0008454947	0.2910944500
0.5647634900	-0.0009999500	-0.0730463120	0.0008493432	0.2910268300
0.5567091100	-0.0009999500	-0.0732700300	0.0005292380	0.2874417000
0.5483250000	-0.0009999500	-0.0734928250	0.0008750371	0.2831049000
0.5481989400	-0.0009999500	-0.0734962450	0.0008701684	0.2830365300
0.5480825900	-0.0009999500	-0.0734991360	0.0008738762	0.2829979400
0.5394745500	-0.0009999500	-0.0737172140	0.0005709992	0.2799096100
0.5304124400	-0.0009999500	-0.0739351730	0.0009279649	0.2762766800
0.5303276800	-0.0009999500	-0.0739372600	0.0009256667	0.2762371000
0.5302453000	-0.0009999500	-0.0739391520	0.0009269951	0.2762017800
0.5210372800	-0.0009999500	-0.0741484610	0.0007777014	0.2720870100
0.5208905300	-0.0009999500	-0.0741516050	0.0007834199	0.2720138100
0.5141546100	-0.0009999500	-0.0742969510	0.0007714463	0.2686483000
0.5140194300	-0.0009999500	-0.0742997150	0.0007725652	0.2686132800
0.5050345700	-0.0009999500	-0.0744833570	0.0007821942	0.2649247100
0.5049015900	-0.0009999500	-0.0744859500	0.0007817015	0.2648655500
0.4931963100	-0.0009999500	-0.0747076500	0.0010659735	0.2609324200
0.4930795100	-0.0009999500	-0.0747097880	0.0010658296	0.2608811000
0.4928919400	-0.0009999500	-0.0747130070	0.0010670954	0.2608305500
0.4842086100	-0.0009999500	-0.0748646260	0.0005646519	0.2583106800
0.4739663300	-0.0009999500	-0.0750293510	0.0009069473	0.2539252900
0.4737965200	-0.0009999500	-0.0750320930	0.0009005281	0.2538545700
0.4736789200	-0.0009999500	-0.0750338290	0.0009011094	0.2538134200
0.4632710200	-0.0009999500	-0.0751856490	0.0006486184	0.2503559600
0.4543798900	-0.0009999500	-0.0753029290	0.0009998799	0.2462463200
0.4542764400	-0.0009999500	-0.0753043070	0.0010006381	0.2461944800
0.4541547300	-0.0009999500	-0.0753058120	0.0010058508	0.2461377400
0.4408777100	-0.0009999500	-0.0754595550	0.0008781856	0.2414554400
0.4406978500	-0.0009999500	-0.0754614700	0.0008737503	0.2414159600
0.4301313500	-0.0009999500	-0.0755654280	0.0008761229	0.2379317700
0.4299997700	-0.0009999500	-0.0755666420	0.0008786484	0.2378854200
0.4189016500	-0.0009999500	-0.0756582250	0.0009301663	0.2350779500
0.4187999700	-0.0009999500	-0.0756589920	0.0009278294	0.2350561200
0.4185402100	-0.0009999500	-0.0756610860	0.0009498658	0.2349747400
0.4068511400	-0.0009999500	-0.0757376330	0.0006536928	0.2322873900
0.4065078500	-0.0009999500	-0.0757394730	0.0006394761	0.2322038300
0.3986230800	-0.0009999500	-0.0757794230	0.0008836938	0.2298839500
0.3983316400	-0.0009999500	-0.0757806820	0.0008885993	0.2297796800
0.3875394200	-0.0009999500	-0.0758200880	0.0008393405	0.2268540000
0.3871835800	-0.0009999500	-0.0758208190	0.0008309707	0.2267691800
0.3758200400	-0.0009999500	-0.0758429690	0.0005667788	0.2231307900
0.3679910000	-0.0009999500	-0.0758463810	0.0009065985	0.2202420800
0.3677800000	-0.0009999500	-0.0758463520	0.0008957322	0.2201800900
0.3603236700	-0.0009999500	-0.0758404580	0.0009370720	0.2179157600
0.3602465400	-0.0009999500	-0.0758403690	0.0009379735	0.2178932300
0.3530421600	-0.0009999500	-0.0758260410	0.0011507458	0.2159149100
0.3529361800	-0.0009999500	-0.0758257580	0.0011512020	0.2158879800
0.3433802700	-0.0009999500	-0.0757933330	0.0008019277	0.2139669500
0.3432196400	-0.0009999500	-0.0757926030	0.0008080050	0.2139214100
0.3317760200	-0.0009999500	-0.0757330210	0.0009507598	0.2109820800
0.3316676900	-0.0009999500	-0.0757323430	0.0009453810	0.2109512500
0.3218982800	-0.0009999500	-0.0756630380	0.0009747894	0.2084549700
0.3218154600	-0.0009999500	-0.0756623970	0.0009762355	0.2084310900
0.3115836100	-0.0009999500	-0.0755710600	0.0009971632	0.2058776500
0.3114824300	-0.0009999500	-0.0755701360	0.0009949896	0.2058584700
0.3038319600	-0.0009999500	-0.0754889770	0.0009386609	0.2040747700
0.3037168700	-0.0009999500	-0.0754876660	0.0009416661	0.2040609000
0.2937949600	-0.0009999500	-0.0753655510	0.0009831800	0.2023366200
0.2936928000	-0.0009999500	-0.0753642320	0.0009835394	0.2023184700
0.2936030000	-0.0009999500	-0.0753629280	0.0009824831	0.2023040100
0.2819143800	-0.0009999500	-0.0751939120	0.0009235268	0.2003083500
0.2818118900	-0.0009999500	-0.0751922350	0.0009270645	0.2002846900
0.2734261800	-0.0009999500	-0.0750537140	0.0010359413	0.1979652000
0.2732992800	-0.0009999500	-0.0750514050	0.0010375798	0.1979461200
0.2662615200	-0.0009999500	-0.0749236940	0.0006900860	0.1967649900
0.2600362600	-0.0009999500	-0.0748017950	0.0009587471	0.1956863100
0.2599042700	-0.0009999500	-0.0747992990	0.0009558224	0.1956573000
0.2545504900	-0.0009999500	-0.0746876600	0.0012086274	0.1947995400
0.2544061500	-0.0009999500	-0.0746845680	0.0012106387	0.1947766700
0.2469238600	-0.0009999500	-0.0745177940	0.0008607597	0.1943353100
0.2467667300	-0.0009999500	-0.0745140760	0.0008663027	0.1943108000
0.2408305900	-0.0009999500	-0.0743726860	0.0007738912	0.1932288000
0.2339719500	-0.0009999500	-0.0741990730	0.0010114322	0.1922274500
0.2337548100	-0.0009999500	-0.0741935970	0.0010066016	0.1921951500
0.2220779400	-0.0009999500	-0.0738722460	0.0012763197	0.1902089700
0.2219904800	-0.0009999500	-0.0738698470	0.0012747763	0.1901852800
0.2219346900	-0.0009999500	-0.0738682450	0.0012721668	0.1901928300
0.2129892700	-0.0009999500	-0.0735995990	0.0012507111	0.1887822400
0.2129384700	-0.0009999500	-0.0735980790	0.0012487609	0.1887618600
0.2128527300	-0.0009999500	-0.0735953080	0.0012528129	0.1887605000
0.2024193300	-0.0009999500	-0.0732566710	0.0010311874	0.1886946600
0.2023435400	-0.0009999500	-0.0732541160	0.0010306379	0.1886916200
0.1938151400	-0.0009999500	-0.0729565020	0.0010672389	0.1878763700
0.1937496400	-0.0009999500	-0.0729541850	0.0010656949	0.1878645900
0.1871360700	-0.0009999500	-0.0727101940	0.0011081860	0.1867011000
0.1870825900	-0.0009999500	-0.0727082040	0.0011051686	0.1866957800
0.1869943600	-0.0009999500	-0.0727047990	0.0011135302	0.1866990300
0.1759977800	-0.0009999500	-0.0722728740	0.0010550410	0.1860097300
0.1758652000	-0.0009999500	-0.0722674580	0.0010518592	0.1860001400
0.1668740700	-0.0009999500	-0.0718893190	0.0011207375	0.1856187600
0.1667735900	-0.0009999500	-0.0718849150	0.0011187635	0.1856110400
0.1570220600	-0.0009999500	-0.0714486910	0.0011212400	0.1856994900
0.1569100600	-0.0009999500	-0.0714434680	0.0011256826	0.1856936800
0.1446411800	-0.0009999500	-0.0708548720	0.0011258255	0.1853757800
0.1445242600	-0.0009999500	-0.0708491210	0.0011313907	0.1853655100
0.1359372000	-0.0009999500	-0.0704099090	0.0010933826	0.1853825600
0.1358267400	-0.0009999500	-0.0704041570	0.0010876037	0.1853991900
0.1283007900	-0.0009999500	-0.0700002240	0.0011152800	0.1853194500
0.1281817300	-0.0009999500	-0.0699937270	0.0011139934	0.1853124600
0.1198857700	-0.0009999500	-0.0695274700	0.0012280967	0.1857023800
0.1197930100	-0.0009999500	-0.0695221420	0.0012306355	0.1856995700
0.1196004300	-0.0009999500	-0.0695108990	0.0012450677	0.1857287000
0.1083521200	-0.0009999500	-0.0688418970	0.0008334373	0.1869619900
0.1081658900	-0.0009999500	-0.0688303410	0.0008194523	0.1869523400
0.0971540210	-0.0009999500	-0.0681320130	0.0012690418	0.1868524400
0.0970434250	-0.0009999500	-0.0681248610	0.0012598203	0.1868613800
0.0969901530	-0.0009999500	-0.0681213510	0.0012610465	0.1868615300
0.0887530820	-0.0009999500	-0.0675697250	0.0011935422	0.1876361200
0.0886850210	-0.0009999500	-0.0675650760	0.0011912684	0.1876554500
0.0819035770	-0.0009999500	-0.0670914580	0.0012355246	0.1889090200
0.0818057060	-0.0009999500	-0.0670844470	0.0012455095	0.1889067000
0.0734501700	-0.0009999500	-0.0664756820	0.0014511506	0.1898149000
0.0733459000	-0.0009999500	-0.0664679330	0.0014447375	0.1898281300
0.0732168850	-0.0009999500	-0.0664580320	0.0014594201	0.1898446800
0.0647109150	-0.0009999500	-0.0658083930	0.0013300514	0.1927312900
0.0645414670	-0.0009999500	-0.0657949890	0.0013261937	0.1927560700
0.0641714780	-0.0009999500	-0.0657647700	0.0013496840	0.1927876600
0.0524514020	-0.0009999500	-0.0648171380	0.0011895602	0.1959190100
0.0508310870	-0.0009999500	-0.0646775140	0.0014500571	0.1959485700
0.0418015760	-0.0009999500	-0.0638981090	0.0016790177	0.1978114500
0.0327397620	-0.0009999500	-0.0630671380	0.0021112328	0.1994706500
0.0294521600	-0.0009999500	-0.0627657620	0.0021014525	0.2006137100
0.0246416930	-0.0009999500	-0.0622964840	0.0023914340	0.2017887200
0.0194080270	-0.0009999500	-0.0617889310	0.0023783010	0.2036924500
0.0180914120	-0.0009999500	-0.0616556890	0.0024324198	0.2039295100
0.0071447422	-0.0009999500	-0.0605283010	0.0024521669	0.2071238800
0.0062283697	-0.0009999500	-0.0604321550	0.0024283516	0.2075103800
0.0044471864	-0.0009999500	-0.0602382090	0.0024651926	0.2080372700
-0.0050062737	-0.0009999500	-0.0592000110	0.0023775123	0.2116056700
-0.0069935033	-0.0009999500	-0.0589745340	0.0023607448	0.2122105400
-0.0184593000	-0.0009999500	-0.0576279950	0.0024787042	0.2152060000
-0.0190960190	-0.0009999500	-0.0575525840	0.0024656789	0.2154646400
-0.0191987450	-0.0009999500	-0.0575401670	0.0024650913	0.2155002400
-0.0195745450	-0.0009999500	-0.0574936980	0.0024737031	0.2156891200
-0.0288465970	-0.0009999500	-0.0563395280	0.0022116877	0.2205633200
-0.0324852800	-0.0009999500	-0.0558697020	0.0022973896	0.2221554200
-0.0363934670	-0.0009999500	-0.0553559620	0.0021817275	0.2242968500
-0.0440253350	-0.0009999500	-0.0543196310	0.0023481243	0.2271889200
-0.0463007500	-0.0009999500	-0.0540114380	0.0023180457	0.2281797500
-0.0463551880	-0.0009999500	-0.0540039350	0.0023173423	0.2282331000
-0.0466050950	-0.0009999500	-0.0539683700	0.0023250580	0.2283584900
-0.0498050410	-0.0009999500	-0.0535118950	0.0023239360	0.2304369100
-0.0538829750	-0.0009999500	-0.0529303890	0.0022045031	0.2334538400
-0.0565010230	-0.0009999500	-0.0525456960	0.0022914969	0.2348272200
-0.0607446430	-0.0009999500	-0.0519153740	0.0022217916	0.2376768100
-0.0616204250	-0.0009999500	-0.0517858160	0.0022040430	0.2381492700
-0.0620866490	-0.0009999500	-0.0517145060	0.0022073215	0.2385671100
-0.0669384450	-0.0009999500	-0.0509687920	0.0026199873	0.2430823900
-0.0677432340	-0.0009999500	-0.0508445580	0.0026265003	0.2437843700
-0.0732840600	-0.0009999500	-0.0499631240	0.0023391451	0.2462778100
-0.0758226510	-0.0009999500	-0.0495540130	0.0023576566	0.2480990600
-0.0831281620	-0.0009999500	-0.0483340140	0.0023678600	0.2534704800
-0.0857314540	-0.0009999500	-0.0478950070	0.0023278577	0.2555444200
-0.0884665100	-0.0009999500	-0.0474115720	0.0024389672	0.2575888300
-0.0939230990	-0.0009999500	-0.0464521350	0.0022906578	0.2627129600
-0.0955376920	-0.0009999500	-0.0461608390	0.0022681992	0.2641999400
-0.1056126800	-0.0009999500	-0.0442730750	0.0028767684	0.2729797100
-0.1062326500	-0.0009999500	-0.0441566000	0.0028917474	0.2736335400
-0.1067675900	-0.0009999500	-0.0440525080	0.0028967694	0.2741805000
-0.1151043300	-0.0009999500	-0.0423982400	0.0030114967	0.2843649100
-0.1152425200	-0.0009999500	-0.0423705620	0.0030099478	0.2845389500
-0.1154514300	-0.0009999500	-0.0423271810	0.0030049525	0.2847653300
-0.1234385200	-0.0009999500	-0.0406608320	0.0029127776	0.2973773200
-0.1261550800	-0.0009999500	-0.0400680040	0.0029103343	0.2999385900
-0.1333638100	-0.0009999500	-0.0384678280	0.0027788250	0.3088798800
-0.1360755900	-0.0009999500	-0.0378509460	0.0027206437	0.3136796400
-0.1426691100	-0.0009999500	-0.0362805690	0.0026704524	0.3229677100
-0.1452583200	-0.0009999500	-0.0356619400	0.0026381178	0.3270166500
-0.1532655800	-0.0009999500	-0.0336368460	0.0026638766	0.3409053700
-0.1536787000	-0.0009999500	-0.0335324290	0.0026623774	0.3416317400
-0.1540310700	-0.0009999500	-0.0334391710	0.0026601042	0.3424364600
-0.1599167400	-0.0009999500	-0.0318708720	0.0024741987	0.3582519900
-0.1612220300	-0.0009999500	-0.0315107740	0.0024834240	0.3613895800
-0.1660429200	-0.0009999500	-0.0301637580	0.0026696321	0.3728329800
-0.1667804600	-0.0009999500	-0.0299498610	0.0026815624	0.3744932700
-0.1721422800	-0.0009999500	-0.0283820390	0.0026624426	0.3858265600
-0.1741190000	-0.0009999500	-0.0277793090	0.0028078541	0.3924769800
-0.1768666500	-0.0009999500	-0.0269451480	0.0026926449	0.4006564000
-0.1801165500	-0.0009999500	-0.0258956920	0.0027076584	0.4110297000
-0.1836212100	-0.0009999500	-0.0247741660	0.0025729714	0.4207866800
-0.1892972400	-0.0009999500	-0.0228261170	0.0027337907	0.4408888200
-0.1911814700	-0.0009999500	-0.0221841280	0.0026761610	0.4470320600
-0.1916478400	-0.0009999500	-0.0220192470	0.0026826672	0.4495484200
-0.1934740700	-0.0009999500	-0.0213478470	0.0027267707	0.4583852900
-0.1980266300	-0.0009999500	-0.0196648650	0.0024792756	0.4825715700
-0.2030347000	-0.0009999500	-0.0176954230	0.0025502888	0.5082646600
-0.2050625800	-0.0009999500	-0.0168500520	0.0024968751	0.5186586400
-0.2101196300	-0.0009999500	-0.0147026980	0.0022095007	0.5462803800
-0.2120116500	-0.0009999500	-0.0138317190	0.0022553282	0.5606157800
-0.2159410700	-0.0009999500	-0.0120082480	0.0021527596	0.5926380800
-0.2186358900	-0.0009999500	-0.0106704020	0.0020878237	0.6168277900
-0.2220641100	-0.0009999500	-0.0088514378	0.0019308669	0.6458476800
-0.2253242400	-0.0009999500	-0.0070787864	0.0016740341	0.6725085400
-0.2269046300	-0.0009999500	-0.0061200880	0.0015705825	0.6915185500
-0.2298318600	-0.0009999500	-0.0043441071	0.0013868133	0.7293190400
-0.2318517600	-0.0009999500	-0.0029971034	0.0014295119	0.7627156400
-0.2332821500	-0.0009999500	-0.0020125469	0.0013869561	0.7836836600
-0.2348177700	-0.0009999500	-0.0008688918	0.0013061430	0.8109340100
-0.2360609800	-0.0009999500	0.0000460598	0.0011667853	0.8315949400
-0.2363584800	-0.0009999500	0.0002809923	0.0011397821	0.8364853300
-0.2397555600	-0.0009999500	0.0031738470	0.0007395019	0.8922383200
-0.2398133100	-0.0009999500	0.0032240150	0.0007308856	0.8931808500
-0.2398632900	-0.0009999500	0.0032731574	0.0007233192	0.8940779000
-0.2432458100	-0.0009999500	0.0067743254	0.0003125235	0.9530360700
-0.2433482300	-0.0009999500	0.0068945657	0.0003023632	0.9544992400
-0.2455530300	-0.0009999500	0.0098168617	0.0000951878	0.9836614700
-0.2457603400	-0.0009999500	0.0101105600	0.0000634280	0.9860215200
-0.2459436700	-0.0009999500	0.0104178470	0.0000449729	0.9863405200
-0.2468899500	-0.0009999500	0.0120352350	-0.0000425049	0.9785978800
-0.2469582400	-0.0009999500	0.0121760940	-0.0000476280	0.9765573700
-0.2471067300	-0.0009999500	0.0125546020	-0.0000531216	0.9685308300
-0.2481418300	-0.0009999500	0.0149382590	-0.0000867469	0.9316237600
-0.2486782700	-0.0009999500	0.0168600790	-0.0001050126	0.8675996700
-0.2489474100	-0.0009999500	0.0184054340	-0.0000842510	0.8042401700
-0.2490612400	-0.0009999500	0.0212275420	0.0001510165	0.6407977900
-0.2490486800	-0.0009999500	0.0217889360	0.0002687697	0.5937857000
-0.2490098200	-0.0009999500	0.0220737610	0.0003433914	0.5715062600
-0.2488698400	-0.0009999500	0.0228067210	0.0005814072	0.5162494800
-0.2486616800	-0.0009999500	0.0241194550	0.0008473014	0.4060395700
-0.2483114600	-0.0009999500	0.0252798390	0.0014237621	0.3102085900
-0.2480496600	-0.0009999500	0.0260950380	0.0018292763	0.2361167700
-0.2478796500	-0.0009999500	0.0265045890	0.0021017845	0.2055889800
-0.2474384300	-0.0009999500	0.0274958910	0.0028667551	0.1190719100
-0.2472241700	-0.0009999500	0.0279217050	0.0031150445	0.0844752640
-0.2465946800	-0.0009999500	0.0290107430	0.0036460578	0.0183752810
-0.2462626200	-0.0009999500	0.0295699740	0.0040727893	-0.0164251510
-0.2460462500	-0.0009999500	0.0298940170	0.0043111409	-0.0387732800
-0.2453337800	-0.0009999500	0.0308838240	0.0045744353	-0.1138529900
-0.2452968500	-0.0009999500	0.0309344060	0.0045543456	-0.1177882900
-0.2452678700	-0.0009999500	0.0309708300	0.0045571365	-0.1196783000
-0.2441154700	-0.0009999500	0.0323531260	0.0045178805	-0.1941449600
-0.2439491600	-0.0009999500	0.0325356310	0.0046124656	-0.2029242800
-0.2427752000	-0.0009999500	0.0337446850	0.0049481904	-0.2589963700
-0.2426769400	-0.0009999500	0.0338406560	0.0049421122	-0.2628101400
-0.2421620000	-0.0009999500	0.0343070660	0.0051340396	-0.2783941300
-0.2411404400	-0.0009999500	0.0352239160	0.0051475882	-0.3069590300
-0.2402015800	-0.0009999500	0.0359934640	0.0060280945	-0.3252979800
-0.2395979300	-0.0009999500	0.0364489630	0.0061606424	-0.3369974500
-0.2384290000	-0.0009999500	0.0373207000	0.0056780293	-0.3589680800
-0.2376942500	-0.0009999500	0.0378211480	0.0056865437	-0.3713447700
-0.2363703300	-0.0009999500	0.0386931820	0.0051742279	-0.3917141900
-0.2347974900	-0.0009999500	0.0396487970	0.0058599269	-0.4075407100
-0.2346188400	-0.0009999500	0.0397590470	0.0058619019	-0.4090802400
-0.2345117300	-0.0009999500	0.0398205180	0.0058622267	-0.4097320400
-0.2331263300	-0.0009999500	0.0405869630	0.0056633619	-0.4171284700
-0.2322940800	-0.0009999500	0.0410483930	0.0054678148	-0.4216243300
-0.2321489200	-0.0009999500	0.0411233230	0.0054482408	-0.4224101600
-0.2297993700	-0.0009999500	0.0423036180	0.0050173587	-0.4334996300
-0.2293341600	-0.0009999500	0.0425220210	0.0050598881	-0.4346769800
-0.2272992400	-0.0009999500	0.0434512720	0.0049818876	-0.4384236600
-0.2259828400	-0.0009999500	0.0440155570	0.0049853180	-0.4400500700
-0.2241919800	-0.0009999500	0.0447564050	0.0051934201	-0.4427296500
-0.2220169300	-0.0009999500	0.0455949310	0.0052874387	-0.4457172200
-0.2209482900	-0.0009999500	0.0459971910	0.0050941982	-0.4462975000
-0.2194575700	-0.0009999500	0.0465018860	0.0051154084	-0.4454035500
-0.2168645700	-0.0009999500	0.0474003070	0.0046565510	-0.4430288100
-0.2147093700	-0.0009999500	0.0480970070	0.0052930607	-0.4418788300
-0.2134971200	-0.0009999500	0.0484678450	0.0055674330	-0.4407264300
-0.2092568000	-0.0009999500	0.0496924220	0.0053597353	-0.4379386000
-0.2090427100	-0.0009999500	0.0497526860	0.0052920891	-0.4376958600
-0.2088937200	-0.0009999500	0.0497914250	0.0052816728	-0.4374734800
-0.2034638800	-0.0009999500	0.0511896540	0.0052185204	-0.4293367600
-0.2034115600	-0.0009999500	0.0512022150	0.0052183539	-0.4292697000
-0.2030490600	-0.0009999500	0.0512857960	0.0052408416	-0.4288386700
-0.1982576100	-0.0009999500	0.0523893090	0.0051421699	-0.4233289400
-0.1941640400	-0.0009999500	0.0532304310	0.0053875560	-0.4168211800
-0.1920924300	-0.0009999500	0.0536591080	0.0053121101	-0.4135189700
-0.1914405700	-0.0009999500	0.0537836630	0.0053260310	-0.4126691800
-0.1896580900	-0.0009999500	0.0540959610	0.0053276445	-0.4098296200
-0.1828348000	-0.0009999500	0.0553105060	0.0051655862	-0.3990931500
-0.1745610100	-0.0009999500	0.0565539300	0.0048326523	-0.3888884200
-0.1737080500	-0.0009999500	0.0566834660	0.0047556321	-0.3878049300
-0.1712032600	-0.0009999500	0.0570001160	0.0047590078	-0.3845058700
-0.1641425200	-0.0009999500	0.0578932240	0.0046469009	-0.3750593400
-0.1631799500	-0.0009999500	0.0580057430	0.0046780563	-0.3737716100
-0.1620480100	-0.0009999500	0.0581219900	0.0046644765	-0.3719926500
-0.1506550500	-0.0009999500	0.0592731460	0.0042461461	-0.3575936300
-0.1496751000	-0.0009999500	0.0593558890	0.0042898620	-0.3564371500
-0.1426485200	-0.0009999500	0.0599330590	0.0042541570	-0.3485248400
-0.1344236300	-0.0009999500	0.0604984310	0.0048208333	-0.3386912900
-0.1340019000	-0.0009999500	0.0605277490	0.0048388222	-0.3382065600
-0.1336924900	-0.0009999500	0.0605459400	0.0048102610	-0.3377876300
-0.1247696400	-0.0009999500	0.0610389860	0.0039517348	-0.3261558700
-0.1194843800	-0.0009999500	0.0612725020	0.0040530664	-0.3203434900
-0.1146057800	-0.0009999500	0.0614736790	0.0040681920	-0.3149569600
-0.1108082800	-0.0009999500	0.0615826920	0.0042337657	-0.3111900100
-0.1038591000	-0.0009999500	0.0617953350	0.0045797051	-0.3038153100
-0.1009578900	-0.0009999500	0.0618446130	0.0045570143	-0.3011123800
-0.0936525610	-0.0009999500	0.0619787540	0.0043447552	-0.2946575300
-0.0888645720	-0.0009999500	0.0620253010	0.0041257228	-0.2900208200
-0.0830650260	-0.0009999500	0.0620581920	0.0040473489	-0.2839942600
-0.0748180450	-0.0009999500	0.0620425530	0.0040374653	-0.2748853300
-0.0721988900	-0.0009999500	0.0620305910	0.0040202727	-0.2724850500
-0.0681407680	-0.0009999500	0.0619731360	0.0039570573	-0.2682944500
-0.0572904270	-0.0009999500	0.0618239530	0.0037063016	-0.2582834700
-0.0526900510	-0.0009999500	0.0617014540	0.0036991192	-0.2529636900
-0.0427986310	-0.0009999500	0.0614512970	0.0035191282	-0.2425013300
-0.0368749350	-0.0009999500	0.0612333600	0.0034203631	-0.2367490800
-0.0295995340	-0.0009999500	0.0609771800	0.0033789847	-0.2299688800
-0.0234650840	-0.0009999500	0.0607114060	0.0033849024	-0.2231127900
-0.0117017660	-0.0009999500	0.0601453520	0.0033227862	-0.2129656700
-0.0098851668	-0.0009999500	0.0600476970	0.0033059229	-0.2114729600
0.0042227604	-0.0009999500	0.0592405570	0.0032523031	-0.1981248100
0.0091541372	-0.0009999500	0.0589239820	0.0031375349	-0.1931728600
0.0173234570	-0.0009999500	0.0583782610	0.0030477760	-0.1853569700
0.0240734330	-0.0009999500	0.0579064900	0.0030657032	-0.1787812700
0.0372195800	-0.0009999500	0.0568922460	0.0028745535	-0.1658323900
0.0431522690	-0.0009999500	0.0564305630	0.0029256721	-0.1601704400
0.0533040910	-0.0009999500	0.0555616690	0.0028539172	-0.1525747800
0.0586827140	-0.0009999500	0.0550980900	0.0027849065	-0.1476249400
0.0699438150	-0.0009999500	0.0540566710	0.0025902353	-0.1356729000
0.0763877260	-0.0009999500	0.0534450370	0.0025150224	-0.1288084100
0.0858865160	-0.0009999500	0.0524961200	0.0023732061	-0.1173836000
0.1018492100	-0.0009999500	0.0508391450	0.0023951906	-0.1038359900
0.1105894400	-0.0009999500	0.0498864800	0.0023671143	-0.0963819470
1 2 
2 3 
3 4 
4 5 
5 6 
6 7 
7 8 
8 9 
9 10 
10 11 
11 12 
12 13 
13 14 
14 15 
15 16 
16 17 
17 18 
18 19 
19 20 
20 21 
21 22 
22 23 
23 24 
24 25 
25 26 
26 27 
27 28 
28 29 
29 30 
30 31 
31 32 
32 33 
33 34 
34 35 
35 36 
36 37 
37 38 
38 39 
39 40 
40 41 
41 42 
42 43 