TITLE     = "Surface mesh and solution"
VARIABLES = "x"
"y"
"z"
"cfx"
"Cp"
ZONE T="Slice: Y=-0.001"
STRANDID=0, SOLUTIONTIME=0
Nodes=1558, Elements=1557, ZONETYPE=FELineSeg
DATAPACKING=POINT
DT=(DOUBLE DOUBLE DOUBLE DOUBLE DOUBLE )
0.4928259000	-0.0009999500	-0.0109343900	0.0008274920	0.2214572600
0.4947145600	-0.0009999500	-0.0113017210	0.0008211775	0.2228080200
0.4966017600	-0.0009999500	-0.0116692990	0.0008137902	0.2241459000
0.4984867600	-0.0009999500	-0.0120369720	0.0008098783	0.2254881400
0.5003687100	-0.0009999500	-0.0124045750	0.0008062555	0.2268988000
0.5022484700	-0.0009999500	-0.0127722770	0.0007998088	0.2282100300
0.5041270900	-0.0009999500	-0.0131402810	0.0007949481	0.2295255400
0.5060043300	-0.0009999500	-0.0135085420	0.0007923486	0.2309266200
0.5078799100	-0.0009999500	-0.0138769820	0.0007883879	0.2322702900
0.5097541800	-0.0009999500	-0.0142456960	0.0007829948	0.2336101400
0.5116277300	-0.0009999500	-0.0146147920	0.0007774953	0.2349692900
0.5135005700	-0.0009999500	-0.0149842560	0.0007720720	0.2362772700
0.5153724000	-0.0009999500	-0.0153540430	0.0007694917	0.2376614100
0.5172435000	-0.0009999500	-0.0157242030	0.0007674655	0.2390375300
0.5191140200	-0.0009999500	-0.0160947610	0.0007628090	0.2403374300
0.5209832800	-0.0009999500	-0.0164655910	0.0007586648	0.2417283700
0.5228508100	-0.0009999500	-0.0168366000	0.0007534421	0.2431010900
0.5247172100	-0.0009999500	-0.0172078910	0.0007454249	0.2444132900
0.5265824200	-0.0009999500	-0.0175794590	0.0007388872	0.2457228600
0.5284445300	-0.0009999500	-0.0179509240	0.0007363873	0.2471049600
0.5303022300	-0.0009999500	-0.0183220240	0.0007342098	0.2484635700
0.5321568300	-0.0009999500	-0.0186930150	0.0007298405	0.2497931100
0.5340088000	-0.0009999500	-0.0190639870	0.0007247619	0.2511441100
0.5358548800	-0.0009999500	-0.0194342830	0.0007194587	0.2524744300
0.5376927300	-0.0009999500	-0.0198034220	0.0007131100	0.2538290600
0.5395247300	-0.0009999500	-0.0201718960	0.0007064777	0.2551444200
0.5413525100	-0.0009999500	-0.0205400180	0.0007021602	0.2564664500
0.5431717600	-0.0009999500	-0.0209069010	0.0006989489	0.2578069000
0.5449788600	-0.0009999500	-0.0212718230	0.0006953163	0.2591300600
0.5467776700	-0.0009999500	-0.0216355620	0.0006914980	0.2604511100
0.5485715900	-0.0009999500	-0.0219987850	0.0006861440	0.2617777900
0.5503559700	-0.0009999500	-0.0223605480	0.0006799513	0.2630524600
0.5521270000	-0.0009999500	-0.0227200780	0.0006760215	0.2643293100
0.5538885600	-0.0009999500	-0.0230781470	0.0006740304	0.2656657400
0.5556440900	-0.0009999500	-0.0234354590	0.0006707982	0.2669440800
0.5573904500	-0.0009999500	-0.0237913540	0.0006648303	0.2682448300
0.5591244700	-0.0009999500	-0.0241451820	0.0006580613	0.2694967700
0.5608497300	-0.0009999500	-0.0244976730	0.0006534802	0.2707439400
0.5625701500	-0.0009999500	-0.0248496090	0.0006505562	0.2720596200
0.5642830700	-0.0009999500	-0.0252004640	0.0006462810	0.2733349500
0.5659859800	-0.0009999500	-0.0255496870	0.0006405039	0.2745798200
0.5676816100	-0.0009999500	-0.0258978640	0.0006365386	0.2758349200
0.5693732500	-0.0009999500	-0.0262456480	0.0006339633	0.2771079200
0.5710592300	-0.0009999500	-0.0265926960	0.0006307724	0.2783908200
0.5727375700	-0.0009999500	-0.0269386000	0.0006258058	0.2796565900
0.5744105000	-0.0009999500	-0.0272838040	0.0006191097	0.2808446000
0.5760803200	-0.0009999500	-0.0276287980	0.0006141765	0.2821312500
0.5777460300	-0.0009999500	-0.0279733560	0.0006104541	0.2833665600
0.5794061400	-0.0009999500	-0.0283171800	0.0006070085	0.2846088100
0.5810623200	-0.0009999500	-0.0286605900	0.0006037770	0.2859028300
0.5827161100	-0.0009999500	-0.0290039350	0.0005986870	0.2871289600
0.5843667400	-0.0009999500	-0.0293470270	0.0005921943	0.2883906400
0.5860129000	-0.0009999500	-0.0296896120	0.0005866644	0.2896027600
0.5876560200	-0.0009999500	-0.0300319700	0.0005843434	0.2908761800
0.5892974100	-0.0009999500	-0.0303743870	0.0005816572	0.2921901600
0.5909363600	-0.0009999500	-0.0307166870	0.0005746976	0.2933815700
0.5925717900	-0.0009999500	-0.0310586820	0.0005680481	0.2947105500
0.5942047800	-0.0009999500	-0.0314005610	0.0005649143	0.2959943700
0.5958362200	-0.0009999500	-0.0317425360	0.0005613926	0.2971347000
0.5974652200	-0.0009999500	-0.0320843940	0.0005560296	0.2984378300
0.5990907500	-0.0009999500	-0.0324259470	0.0005507698	0.2997056800
0.6007138500	-0.0009999500	-0.0327673780	0.0005472185	0.3010029500
0.6023349800	-0.0009999500	-0.0331088190	0.0005436194	0.3023114500
0.6039528800	-0.0009999500	-0.0334499780	0.0005374789	0.3034962400
0.6055663200	-0.0009999500	-0.0337905960	0.0005327153	0.3047849200
0.6071765400	-0.0009999500	-0.0341309350	0.0005293714	0.3061277900
0.6087840800	-0.0009999500	-0.0344711170	0.0005237113	0.3073254800
0.6103861900	-0.0009999500	-0.0348105510	0.0005182197	0.3086095800
0.6119808000	-0.0009999500	-0.0351487880	0.0005133316	0.3099501100
0.6135697400	-0.0009999500	-0.0354862250	0.0005065213	0.3111652700
0.6151536700	-0.0009999500	-0.0358229880	0.0005002579	0.3124354800
0.6167281900	-0.0009999500	-0.0361581410	0.0004958955	0.3137404300
0.6182901300	-0.0009999500	-0.0364910030	0.0004914506	0.3149981200
0.6198427100	-0.0009999500	-0.0368222480	0.0004869616	0.3162530100
0.6213878400	-0.0009999500	-0.0371522830	0.0004826235	0.3174946600
0.6229184300	-0.0009999500	-0.0374795790	0.0004779988	0.3187945200
0.6244288700	-0.0009999500	-0.0378029350	0.0004727464	0.3200410000
0.6259245900	-0.0009999500	-0.0381235000	0.0004671350	0.3212441500
0.6274091600	-0.0009999500	-0.0384420270	0.0004622131	0.3224967700
0.6288741800	-0.0009999500	-0.0387566980	0.0004574064	0.3237068400
0.6303131600	-0.0009999500	-0.0390661100	0.0004525030	0.3249145700
0.6317330000	-0.0009999500	-0.0393717440	0.0004476614	0.3261079500
0.6331398500	-0.0009999500	-0.0396748860	0.0004423793	0.3272900900
0.6345231500	-0.0009999500	-0.0399732660	0.0004370642	0.3284606000
0.6358745100	-0.0009999500	-0.0402650570	0.0004320673	0.3296084100
0.6372028600	-0.0009999500	-0.0405521690	0.0004275204	0.3307442100
0.6385155300	-0.0009999500	-0.0408361740	0.0004237640	0.3318669200
0.6398029900	-0.0009999500	-0.0411149900	0.0004213474	0.3329734200
0.6410556400	-0.0009999500	-0.0413865260	0.0004212443	0.3340651400
0.6422851700	-0.0009999500	-0.0416532940	0.0004246646	0.3351469300
0.6428183300	-0.0009999500	-0.0417690840	0.0004277239	0.3356156100
0.6435087900	-0.0009999500	-0.0419190340	0.0004245591	0.3362047400
0.6447323600	-0.0009999500	-0.0421850010	0.0004194155	0.3372450200
0.6459540700	-0.0009999500	-0.0424508150	0.0004158315	0.3382910200
0.6471115900	-0.0009999500	-0.0427028870	0.0004142314	0.3393002500
0.6471754900	-0.0009999500	-0.0427168090	0.0004139091	0.3393562400
0.6483942300	-0.0009999500	-0.0429824550	0.0004075964	0.3404462300
0.6496041400	-0.0009999500	-0.0432464180	0.0004027005	0.3415534200
0.6508011200	-0.0009999500	-0.0435078070	0.0003985035	0.3426567300
0.6519892200	-0.0009999500	-0.0437674780	0.0003942024	0.3437413900
0.6531717800	-0.0009999500	-0.0440261770	0.0003893947	0.3448051500
0.6543433700	-0.0009999500	-0.0442827050	0.0003840688	0.3458486500
0.6554992800	-0.0009999500	-0.0445360240	0.0003783843	0.3468754600
0.6566442800	-0.0009999500	-0.0447871690	0.0003725741	0.3478939800
0.6577824400	-0.0009999500	-0.0450370240	0.0003668050	0.3489074400
0.6589060400	-0.0009999500	-0.0452839100	0.0003610275	0.3499118100
0.6600090300	-0.0009999500	-0.0455264600	0.0003551600	0.3509084000
0.6610972300	-0.0009999500	-0.0457659620	0.0003491538	0.3518957200
0.6621748800	-0.0009999500	-0.0460033340	0.0003430262	0.3528722200
0.6632353100	-0.0009999500	-0.0462371070	0.0003370476	0.3538404100
0.6642727300	-0.0009999500	-0.0464659890	0.0003315917	0.3547984400
0.6652936900	-0.0009999500	-0.0466914100	0.0003265405	0.3557392700
0.6663041100	-0.0009999500	-0.0469146860	0.0003214299	0.3566684100
0.6672976600	-0.0009999500	-0.0471343990	0.0003161872	0.3575873700
0.6682689800	-0.0009999500	-0.0473493670	0.0003109634	0.3584906200
0.6692234300	-0.0009999500	-0.0475607400	0.0003059968	0.3593877000
0.6701661300	-0.0009999500	-0.0477696810	0.0003013537	0.3602757500
0.6710929900	-0.0009999500	-0.0479752420	0.0002967002	0.3611486900
0.6719998100	-0.0009999500	-0.0481765160	0.0002920406	0.3620142600
0.6728912600	-0.0009999500	-0.0483745080	0.0002875819	0.3628678000
0.6737721600	-0.0009999500	-0.0485702830	0.0002828959	0.3636982400
0.6746386900	-0.0009999500	-0.0487630140	0.0002779511	0.3645240400
0.6754863900	-0.0009999500	-0.0489516590	0.0002735312	0.3653455100
0.6763204900	-0.0009999500	-0.0491374170	0.0002696485	0.3661487400
0.6771466100	-0.0009999500	-0.0493215060	0.0002657497	0.3669423800
0.6779609900	-0.0009999500	-0.0495030880	0.0002618037	0.3677328200
0.6787594600	-0.0009999500	-0.0496812430	0.0002579453	0.3685157000
0.6795463600	-0.0009999500	-0.0498569200	0.0002542282	0.3692914200
0.6803262800	-0.0009999500	-0.0500311550	0.0002506130	0.3700566000
0.6810964300	-0.0009999500	-0.0502033010	0.0002467377	0.3708042800
0.6818540100	-0.0009999500	-0.0503727350	0.0002425591	0.3715453400
0.6826017500	-0.0009999500	-0.0505400670	0.0002385077	0.3722833400
0.6833429300	-0.0009999500	-0.0507060400	0.0002347032	0.3730117400
0.6840751800	-0.0009999500	-0.0508701020	0.0002311461	0.3737390900
0.6847953200	-0.0009999500	-0.0510315340	0.0002280856	0.3744657000
0.6855070600	-0.0009999500	-0.0511911700	0.0002253029	0.3751806300
0.6862145100	-0.0009999500	-0.0513499420	0.0002222381	0.3758876600
0.6869147400	-0.0009999500	-0.0515071790	0.0002186656	0.3765885500
0.6876044300	-0.0009999500	-0.0516621250	0.0002147669	0.3772877200
0.6882869000	-0.0009999500	-0.0518155400	0.0002107656	0.3779798700
0.6889658000	-0.0009999500	-0.0519682240	0.0002068249	0.3786631500
0.6896389100	-0.0009999500	-0.0521196980	0.0002031148	0.3793379400
0.6903041600	-0.0009999500	-0.0522694810	0.0001997025	0.3800112900
0.6909635100	-0.0009999500	-0.0524179970	0.0001967920	0.3806863700
0.6916189200	-0.0009999500	-0.0525657240	0.0001942493	0.3813538000
0.6922698600	-0.0009999500	-0.0527124960	0.0001915802	0.3820123400
0.6929151400	-0.0009999500	-0.0528580810	0.0001885137	0.3826658700
0.6935558900	-0.0009999500	-0.0530027110	0.0001851816	0.3833224200
0.6941935400	-0.0009999500	-0.0531467240	0.0001819924	0.3839867100
0.6948275000	-0.0009999500	-0.0532899650	0.0001792224	0.3846522000
0.6954566800	-0.0009999500	-0.0534321960	0.0001764365	0.3853047200
0.6960822300	-0.0009999500	-0.0535736790	0.0001731230	0.3859502100
0.6967054600	-0.0009999500	-0.0537147070	0.0001692790	0.3865916100
0.6973260000	-0.0009999500	-0.0538551920	0.0001652996	0.3872395200
0.6979431500	-0.0009999500	-0.0539949830	0.0001616024	0.3878877500
0.6985576200	-0.0009999500	-0.0541342350	0.0001586262	0.3885401200
0.6991703500	-0.0009999500	-0.0542731550	0.0001564823	0.3891823900
0.6997808800	-0.0009999500	-0.0544116460	0.0001539187	0.3898053200
0.7003886100	-0.0009999500	-0.0545495670	0.0001505516	0.3904439800
0.7009940700	-0.0009999500	-0.0546870490	0.0001474724	0.3910960600
0.7015980500	-0.0009999500	-0.0548242550	0.0001446455	0.3917356700
0.7022000600	-0.0009999500	-0.0549610700	0.0001414054	0.3923676600
0.7027994400	-0.0009999500	-0.0550973530	0.0001380404	0.3930013800
0.7033966800	-0.0009999500	-0.0552332290	0.0001347524	0.3936273200
0.7039924300	-0.0009999500	-0.0553688220	0.0001314737	0.3942542700
0.7045862100	-0.0009999500	-0.0555040200	0.0001284054	0.3948836300
0.7051773700	-0.0009999500	-0.0556387040	0.0001255515	0.3955162200
0.7057665000	-0.0009999500	-0.0557729830	0.0001230085	0.3961546400
0.7063540800	-0.0009999500	-0.0559069660	0.0001204987	0.3967858300
0.7069395800	-0.0009999500	-0.0560405290	0.0001174795	0.3974155500
0.7075223900	-0.0009999500	-0.0561735630	0.0001141677	0.3980486100
0.7081031200	-0.0009999500	-0.0563061650	0.0001107950	0.3986747300
0.7086821800	-0.0009999500	-0.0564384610	0.0001070247	0.3992881800
0.7092592100	-0.0009999500	-0.0565703440	0.0001031458	0.3999080400
0.7098336200	-0.0009999500	-0.0567016900	0.0001002815	0.4005382400
0.7104058300	-0.0009999500	-0.0568326040	0.0000981440	0.4011523400
0.7109765400	-0.0009999500	-0.0569632200	0.0000957237	0.4017640900
0.7115452300	-0.0009999500	-0.0570934410	0.0000930828	0.4023798400
0.7121114700	-0.0009999500	-0.0572231520	0.0000901640	0.4029924600
0.7126756300	-0.0009999500	-0.0573524530	0.0000869823	0.4036105000
0.7132383600	-0.0009999500	-0.0574814940	0.0000838113	0.4042294300
0.7137992400	-0.0009999500	-0.0576101580	0.0000804977	0.4048450000
0.7143576700	-0.0009999500	-0.0577383120	0.0000769374	0.4054583300
0.7149140800	-0.0009999500	-0.0578660700	0.0000732586	0.4060669500
0.7154690600	-0.0009999500	-0.0579935460	0.0000696281	0.4066740600
0.7160220700	-0.0009999500	-0.0581206380	0.0000664900	0.4072847700
0.7165725800	-0.0009999500	-0.0582472120	0.0000640337	0.4078902900
0.7171211200	-0.0009999500	-0.0583733770	0.0000616627	0.4084865700
0.7176680000	-0.0009999500	-0.0584992210	0.0000589338	0.4090850100
0.7182127200	-0.0009999500	-0.0586246330	0.0000557930	0.4096845400
0.7187548300	-0.0009999500	-0.0587494860	0.0000523439	0.4102850000
0.7192947900	-0.0009999500	-0.0588739030	0.0000492459	0.4108884300
0.7198331400	-0.0009999500	-0.0589980150	0.0000466732	0.4114821600
0.7203692800	-0.0009999500	-0.0591216570	0.0000437212	0.4120644600
0.7209025600	-0.0009999500	-0.0592446960	0.0000403295	0.4126527300
0.7214334000	-0.0009999500	-0.0593672250	0.0000371006	0.4132396000
0.7219621500	-0.0009999500	-0.0594893250	0.0000337702	0.4138221100
0.7224879900	-0.0009999500	-0.0596108030	0.0000303376	0.4144121700
0.7230099400	-0.0009999500	-0.0597314350	0.0000270120	0.4149968600
0.7235287400	-0.0009999500	-0.0598513970	0.0000235958	0.4155739800
0.7240451000	-0.0009999500	-0.0599708410	0.0000204671	0.4161512300
0.7245579400	-0.0009999500	-0.0600895140	0.0000179754	0.4167211100
0.7250663600	-0.0009999500	-0.0602072250	0.0000156441	0.4172799000
0.7255709800	-0.0009999500	-0.0603240950	0.0000131163	0.4178383600
0.7260723100	-0.0009999500	-0.0604402500	0.0000103148	0.4183934000
0.7265698300	-0.0009999500	-0.0605555700	0.0000070306	0.4189437900
0.7270627600	-0.0009999500	-0.0606698770	0.0000036238	0.4194960300
0.7275518800	-0.0009999500	-0.0607833490	0.0000004704	0.4200391800
0.7280379500	-0.0009999500	-0.0608961510	-0.0000025852	0.4205766000
0.7285189000	-0.0009999500	-0.0610078090	-0.0000054748	0.4211100300
0.7289927600	-0.0009999500	-0.0611178690	-0.0000084179	0.4216322600
0.7294614900	-0.0009999500	-0.0612267810	-0.0000116004	0.4221551700
0.7299269400	-0.0009999500	-0.0613349680	-0.0000147577	0.4226761500
0.7303861400	-0.0009999500	-0.0614417420	-0.0000174075	0.4231928900
0.7308363900	-0.0009999500	-0.0615464670	-0.0000195775	0.4236895700
0.7312798500	-0.0009999500	-0.0616496650	-0.0000224273	0.4241684700
0.7317184800	-0.0009999500	-0.0617517720	-0.0000253812	0.4246618700
0.7321500800	-0.0009999500	-0.0618522730	-0.0000272147	0.4251446100
0.7325728500	-0.0009999500	-0.0619507620	-0.0000290402	0.4255998400
0.7329877600	-0.0009999500	-0.0620474480	-0.0000317963	0.4260480700
0.7333954600	-0.0009999500	-0.0621424840	-0.0000348986	0.4264996900
0.7337946300	-0.0009999500	-0.0622355600	-0.0000371830	0.4269527200
0.7341837900	-0.0009999500	-0.0623263420	-0.0000393084	0.4273743600
0.7345646000	-0.0009999500	-0.0624151970	-0.0000422140	0.4277932600
0.7349384400	-0.0009999500	-0.0625024590	-0.0000443647	0.4282178000
0.7353035800	-0.0009999500	-0.0625877080	-0.0000458600	0.4286112500
0.7356585300	-0.0009999500	-0.0626706110	-0.0000482310	0.4289888400
0.7360042900	-0.0009999500	-0.0627513900	-0.0000501354	0.4293805100
0.7363420100	-0.0009999500	-0.0628303140	-0.0000506029	0.4297524400
0.7366707300	-0.0009999500	-0.0629071590	-0.0000510656	0.4300940300
0.7369891400	-0.0009999500	-0.0629816060	-0.0000516193	0.4304374200
0.7373098100	-0.0009999500	-0.0630565960	-0.0000580054	0.4307775500
0.7374385000	-0.0009999500	-0.0630867110	-0.0000604283	0.4309115400
0.7377216200	-0.0009999500	-0.0631529470	-0.0000611103	0.4312549500
0.7379141400	-0.0009999500	-0.0631979930	-0.0000594692	0.4315047600
0.7382839900	-0.0009999500	-0.0632845610	-0.0000603267	0.4319010100
0.7384000400	-0.0009999500	-0.0633117330	-0.0000616145	0.4320102300
0.7386081800	-0.0009999500	-0.0633604680	-0.0000595959	0.4322746400
0.7387625000	-0.0009999500	-0.0633966100	-0.0000600715	0.4324554200
0.7390420400	-0.0009999500	-0.0634620790	-0.0000628433	0.4327216400
0.7393417400	-0.0009999500	-0.0635322850	-0.0000644847	0.4330683900
0.7395190600	-0.0009999500	-0.0635738370	-0.0000655231	0.4332298600
0.7398067100	-0.0009999500	-0.0636412580	-0.0000675858	0.4335596000
0.7399317600	-0.0009999500	-0.0636705680	-0.0000689770	0.4337029500
0.7402499300	-0.0009999500	-0.0637451480	-0.0000664828	0.4340374200
0.7405453900	-0.0009999500	-0.0638144540	-0.0000704993	0.4343511200
0.7406225200	-0.0009999500	-0.0638325360	-0.0000704886	0.4344268400
0.7409217400	-0.0009999500	-0.0639027210	-0.0000722426	0.4347850700
0.7409405700	-0.0009999500	-0.0639071320	-0.0000724911	0.4348072700
0.7412395500	-0.0009999500	-0.0639772940	-0.0000687048	0.4351225500
0.7412729300	-0.0009999500	-0.0639851170	-0.0000683664	0.4351576300
0.7415880600	-0.0009999500	-0.0640590860	-0.0000750569	0.4354882200
0.7419736400	-0.0009999500	-0.0641496030	-0.0000769277	0.4359273300
0.7422294600	-0.0009999500	-0.0642096850	-0.0000763926	0.4362028500
0.7423519500	-0.0009999500	-0.0642384370	-0.0000746939	0.4363461700
0.7426854400	-0.0009999500	-0.0643167870	-0.0000757383	0.4367448700
0.7429776800	-0.0009999500	-0.0643854590	-0.0000745317	0.4370848500
0.7432453000	-0.0009999500	-0.0644483570	-0.0000738012	0.4373836200
0.7432467900	-0.0009999500	-0.0644487070	-0.0000737952	0.4373852600
0.7434983300	-0.0009999500	-0.0645078270	-0.0000727941	0.4376693400
0.7437249400	-0.0009999500	-0.0645611210	-0.0000717677	0.4379336800
0.7439307600	-0.0009999500	-0.0646095280	-0.0000727177	0.4381412300
0.7441249500	-0.0009999500	-0.0646552000	-0.0000700011	0.4383403700
0.7443296300	-0.0009999500	-0.0647033530	-0.0000699063	0.4385649600
0.7445524900	-0.0009999500	-0.0647558120	-0.0000689312	0.4388139800
0.7445579800	-0.0009999500	-0.0647570860	-0.0000688658	0.4388202100
0.7447915100	-0.0009999500	-0.0648120570	-0.0000669216	0.4390701700
0.7449523800	-0.0009999500	-0.0648499280	-0.0000653389	0.4392150300
0.7451793600	-0.0009999500	-0.0649033860	-0.0000646599	0.4394753600
0.7452359200	-0.0009999500	-0.0649167000	-0.0000643308	0.4395267100
0.7455344200	-0.0009999500	-0.0649869960	-0.0000582865	0.4398092600
0.7455805500	-0.0009999500	-0.0649978670	-0.0000572919	0.4398511900
0.7457912000	-0.0009999500	-0.0650474880	-0.0000544310	0.4400344800
0.7460127500	-0.0009999500	-0.0650996940	-0.0000524287	0.4402445300
0.7462728600	-0.0009999500	-0.0651609750	-0.0000472444	0.4405041300
0.7463374100	-0.0009999500	-0.0651761890	-0.0000451140	0.4405578100
0.7465245700	-0.0009999500	-0.0652203110	-0.0000411671	0.4407070000
0.7466545100	-0.0009999500	-0.0652509410	-0.0000345928	0.4408401500
0.7467840900	-0.0009999500	-0.0652814810	-0.0000276635	0.4409485200
0.7468847600	-0.0009999500	-0.0653052180	-0.0000177718	0.4410489800
0.7469688700	-0.0009999500	-0.0653250440	-0.0000014629	0.4411182700
0.7470389600	-0.0009999500	-0.0653415620	0.0000436457	0.4411582100
0.7470973700	-0.0009999500	-0.0653553310	0.0002280164	0.4406787200
0.7471460100	-0.0009999500	-0.0653668050	0.0004414894	0.4398737000
0.7470961200	-0.0009999500	-0.0653696580	0.0003678998	0.4400630300
0.7470362200	-0.0009999500	-0.0653730780	0.0001972052	0.4405927100
0.7469643400	-0.0009999500	-0.0653771760	0.0001542430	0.4405806400
0.7468780900	-0.0009999500	-0.0653821010	0.0001419832	0.4404847300
0.7467782500	-0.0009999500	-0.0653877930	0.0001380087	0.4403580100
0.7466626200	-0.0009999500	-0.0653943940	0.0001369920	0.4401856700
0.7466486100	-0.0009999500	-0.0653951910	0.0001368476	0.4401643600
0.7465116400	-0.0009999500	-0.0654029920	0.0001345431	0.4399556200
0.7463574400	-0.0009999500	-0.0654117840	0.0001360581	0.4396981900
0.7463152400	-0.0009999500	-0.0654141900	0.0001361097	0.4396264900
0.7462810300	-0.0009999500	-0.0654161420	0.0001365749	0.4395726600
0.7460727700	-0.0009999500	-0.0654280040	0.0001380113	0.4392330100
0.7460089900	-0.0009999500	-0.0654316400	0.0001372367	0.4391327800
0.7456994100	-0.0009999500	-0.0654492680	0.0001379790	0.4386206300
0.7456860500	-0.0009999500	-0.0654500280	0.0001381955	0.4385961300
0.7456371200	-0.0009999500	-0.0654528070	0.0001386484	0.4385037400
0.7453904700	-0.0009999500	-0.0654668290	0.0001409688	0.4380419000
0.7453439800	-0.0009999500	-0.0654694740	0.0001420160	0.4379638100
0.7450709900	-0.0009999500	-0.0654849780	0.0001501442	0.4374943100
0.7448295400	-0.0009999500	-0.0654986800	0.0001529655	0.4370694800
0.7446758700	-0.0009999500	-0.0655073970	0.0001548468	0.4368205100
0.7444564100	-0.0009999500	-0.0655198400	0.0001586032	0.4364040200
0.7442624000	-0.0009999500	-0.0655308220	0.0001599461	0.4360719000
0.7442490500	-0.0009999500	-0.0655315740	0.0001601177	0.4360473500
0.7440619500	-0.0009999500	-0.0655421610	0.0001614738	0.4356721300
0.7438452800	-0.0009999500	-0.0655544180	0.0001659631	0.4352743300
0.7436133600	-0.0009999500	-0.0655675230	0.0001699589	0.4348511100
0.7433646300	-0.0009999500	-0.0655815680	0.0001758305	0.4344146300
0.7432232500	-0.0009999500	-0.0655895400	0.0001789933	0.4341678300
0.7431051700	-0.0009999500	-0.0655962010	0.0001799720	0.4339593900
0.7428376100	-0.0009999500	-0.0656112810	0.0001812995	0.4334827700
0.7425580600	-0.0009999500	-0.0656270160	0.0001831660	0.4329800300
0.7422491900	-0.0009999500	-0.0656443910	0.0001859424	0.4324473700
0.7419158800	-0.0009999500	-0.0656631220	0.0001897501	0.4318665600
0.7415582500	-0.0009999500	-0.0656831940	0.0001947008	0.4312703900
0.7413675200	-0.0009999500	-0.0656938930	0.0001977900	0.4309502200
0.7412067700	-0.0009999500	-0.0657029080	0.0002004612	0.4306850400
0.7411948400	-0.0009999500	-0.0657035780	0.0002004604	0.4306663300
0.7408887100	-0.0009999500	-0.0657207150	0.0002132974	0.4301689900
0.7405407400	-0.0009999500	-0.0657401900	0.0002099605	0.4296346000
0.7405102300	-0.0009999500	-0.0657418970	0.0002106597	0.4295845300
0.7401862100	-0.0009999500	-0.0657600090	0.0002130822	0.4290097100
0.7400898900	-0.0009999500	-0.0657653810	0.0002151330	0.4288755700
0.7397584900	-0.0009999500	-0.0657838880	0.0002218552	0.4283253300
0.7396194300	-0.0009999500	-0.0657916370	0.0002256341	0.4281272900
0.7392808800	-0.0009999500	-0.0658105090	0.0002333149	0.4275881900
0.7390914000	-0.0009999500	-0.0658210590	0.0002366069	0.4273126400
0.7387612500	-0.0009999500	-0.0658394250	0.0002454250	0.4267626400
0.7384877200	-0.0009999500	-0.0658546310	0.0002433691	0.4263692800
0.7383568300	-0.0009999500	-0.0658619030	0.0002396024	0.4261592900
0.7382836300	-0.0009999500	-0.0658659640	0.0002429613	0.4260606500
0.7378714100	-0.0009999500	-0.0658888370	0.0002502160	0.4253700400
0.7377333600	-0.0009999500	-0.0658964890	0.0002503836	0.4251078700
0.7373897400	-0.0009999500	-0.0659155250	0.0002571796	0.4245519000
0.7372927100	-0.0009999500	-0.0659208970	0.0002607879	0.4244181800
0.7369712600	-0.0009999500	-0.0659386810	0.0002699706	0.4239670600
0.7366522000	-0.0009999500	-0.0659563090	0.0002703158	0.4234898700
0.7363241300	-0.0009999500	-0.0659744220	0.0002719517	0.4229822200
0.7359876600	-0.0009999500	-0.0659929740	0.0002762078	0.4224539100
0.7356440400	-0.0009999500	-0.0660118980	0.0002818423	0.4219343100
0.7352923200	-0.0009999500	-0.0660312470	0.0002864696	0.4214269500
0.7349312900	-0.0009999500	-0.0660510880	0.0002902170	0.4208939100
0.7345620400	-0.0009999500	-0.0660713540	0.0002944313	0.4203465600
0.7341859300	-0.0009999500	-0.0660919700	0.0002990318	0.4197886900
0.7338022000	-0.0009999500	-0.0661129800	0.0003037773	0.4192231000
0.7334094000	-0.0009999500	-0.0661344600	0.0003084507	0.4186528600
0.7330088000	-0.0009999500	-0.0661563350	0.0003131210	0.4180781500
0.7326021800	-0.0009999500	-0.0661785080	0.0003178486	0.4175006400
0.7321890600	-0.0009999500	-0.0662010090	0.0003225809	0.4169191700
0.7317686100	-0.0009999500	-0.0662238750	0.0003273345	0.4163324500
0.7313417800	-0.0009999500	-0.0662470530	0.0003320369	0.4157417700
0.7309103000	-0.0009999500	-0.0662704560	0.0003366362	0.4151464400
0.7304730400	-0.0009999500	-0.0662941340	0.0003412056	0.4145464600
0.7300280900	-0.0009999500	-0.0663181990	0.0003453500	0.4139468700
0.7295772400	-0.0009999500	-0.0663425400	0.0003497388	0.4133249800
0.7291227000	-0.0009999500	-0.0663670520	0.0003550145	0.4127082500
0.7286636200	-0.0009999500	-0.0663917660	0.0003602732	0.4121044300
0.7281987100	-0.0009999500	-0.0664167630	0.0003649027	0.4115009600
0.7277288400	-0.0009999500	-0.0664419760	0.0003687959	0.4108804800
0.7272554000	-0.0009999500	-0.0664673520	0.0003735063	0.4102333800
0.7267777900	-0.0009999500	-0.0664929000	0.0003788142	0.4096159900
0.7262952900	-0.0009999500	-0.0665186790	0.0003826603	0.4090100200
0.7258085600	-0.0009999500	-0.0665446370	0.0003865997	0.4083722200
0.7253183100	-0.0009999500	-0.0665707440	0.0003922250	0.4077357900
0.7248236500	-0.0009999500	-0.0665970440	0.0003975368	0.4071247900
0.7243235700	-0.0009999500	-0.0666235830	0.0004015075	0.4064992700
0.7238194900	-0.0009999500	-0.0666502940	0.0004058589	0.4058525300
0.7233130900	-0.0009999500	-0.0666770860	0.0004110677	0.4052173500
0.7228030000	-0.0009999500	-0.0667040200	0.0004160167	0.4045955500
0.7222878900	-0.0009999500	-0.0667311770	0.0004205253	0.4039682400
0.7217690900	-0.0009999500	-0.0667584840	0.0004250008	0.4033380200
0.7212474900	-0.0009999500	-0.0667858870	0.0004285011	0.4027212000
0.7207225600	-0.0009999500	-0.0668134170	0.0004312783	0.4020783300
0.7201937400	-0.0009999500	-0.0668411030	0.0004357961	0.4014153200
0.7196617100	-0.0009999500	-0.0668689090	0.0004414337	0.4007890800
0.7191272400	-0.0009999500	-0.0668967960	0.0004457055	0.4001808800
0.7185894800	-0.0009999500	-0.0669247960	0.0004493680	0.3995486200
0.7180477400	-0.0009999500	-0.0669529590	0.0004537491	0.3989146600
0.7175029500	-0.0009999500	-0.0669812260	0.0004578618	0.3982964500
0.7169560800	-0.0009999500	-0.0670095530	0.0004615531	0.3976674400
0.7164063500	-0.0009999500	-0.0670379700	0.0004650229	0.3970450500
0.7158533300	-0.0009999500	-0.0670665130	0.0004687183	0.3964084100
0.7152976400	-0.0009999500	-0.0670951310	0.0004736959	0.3957721900
0.7147400400	-0.0009999500	-0.0671238010	0.0004788769	0.3951524500
0.7141796900	-0.0009999500	-0.0671525520	0.0004829882	0.3945387900
0.7136157800	-0.0009999500	-0.0671814380	0.0004862544	0.3939206000
0.7130491100	-0.0009999500	-0.0672104060	0.0004897523	0.3932880500
0.7124803100	-0.0009999500	-0.0672394340	0.0004941469	0.3926590400
0.7119086400	-0.0009999500	-0.0672685430	0.0004986447	0.3920513700
0.7113336300	-0.0009999500	-0.0672977720	0.0005022778	0.3914478700
0.7107559400	-0.0009999500	-0.0673270750	0.0005061484	0.3908113200
0.7101761700	-0.0009999500	-0.0673564300	0.0005111116	0.3901794000
0.7095937700	-0.0009999500	-0.0673858600	0.0005156107	0.3895722600
0.7090079200	-0.0009999500	-0.0674154010	0.0005193168	0.3889547600
0.7084196200	-0.0009999500	-0.0674450100	0.0005230019	0.3883382700
0.7078294800	-0.0009999500	-0.0674746480	0.0005265268	0.3877256500
0.7072369500	-0.0009999500	-0.0675043540	0.0005299659	0.3871061800
0.7066412600	-0.0009999500	-0.0675341560	0.0005338259	0.3864790500
0.7060431800	-0.0009999500	-0.0675640180	0.0005384965	0.3858580300
0.7054435600	-0.0009999500	-0.0675938950	0.0005426141	0.3852717000
0.7048417300	-0.0009999500	-0.0676238160	0.0005456734	0.3846703500
0.7042371000	-0.0009999500	-0.0676538200	0.0005487537	0.3840601700
0.7036303300	-0.0009999500	-0.0676838680	0.0005519225	0.3834473500
0.7030220600	-0.0009999500	-0.0677139240	0.0005560184	0.3828249600
0.7024117100	-0.0009999500	-0.0677440240	0.0005606894	0.3822284300
0.7017987400	-0.0009999500	-0.0677741840	0.0005648084	0.3816331000
0.7011838000	-0.0009999500	-0.0678043810	0.0005684250	0.3810365200
0.7005673600	-0.0009999500	-0.0678345930	0.0005714824	0.3804344200
0.6999487900	-0.0009999500	-0.0678648350	0.0005749953	0.3798152800
0.6993277100	-0.0009999500	-0.0678951440	0.0005793404	0.3792167900
0.6987046000	-0.0009999500	-0.0679254830	0.0005833000	0.3786353200
0.6980800600	-0.0009999500	-0.0679558290	0.0005864832	0.3780479700
0.6974533200	-0.0009999500	-0.0679862130	0.0005898308	0.3774458800
0.6968237200	-0.0009999500	-0.0680166710	0.0005938435	0.3768494700
0.6961919700	-0.0009999500	-0.0680471660	0.0005976573	0.3762703200
0.6955584300	-0.0009999500	-0.0680776760	0.0006011267	0.3756859900
0.6949225700	-0.0009999500	-0.0681082380	0.0006044833	0.3750976000
0.6942836600	-0.0009999500	-0.0681388750	0.0006077398	0.3744998600
0.6936425000	-0.0009999500	-0.0681695570	0.0006112280	0.3739044400
0.6929996000	-0.0009999500	-0.0682002450	0.0006152278	0.3733118200
0.6923542000	-0.0009999500	-0.0682309940	0.0006188759	0.3727376500
0.6917057600	-0.0009999500	-0.0682618100	0.0006217919	0.3721555800
0.6910548200	-0.0009999500	-0.0682926770	0.0006252154	0.3715642400
0.6904019100	-0.0009999500	-0.0683235750	0.0006286042	0.3709945400
0.6897456600	-0.0009999500	-0.0683545470	0.0006319500	0.3704080600
0.6890848900	-0.0009999500	-0.0683856680	0.0006358537	0.3698290300
0.6884207100	-0.0009999500	-0.0684168790	0.0006389766	0.3692621900
0.6877535600	-0.0009999500	-0.0684481490	0.0006420706	0.3686671600
0.6870818100	-0.0009999500	-0.0684795680	0.0006459498	0.3680850600
0.6864045300	-0.0009999500	-0.0685111660	0.0006496738	0.3675098100
0.6857225300	-0.0009999500	-0.0685429130	0.0006534568	0.3669267000
0.6850361200	-0.0009999500	-0.0685747860	0.0006565694	0.3663599500
0.6843429800	-0.0009999500	-0.0686068910	0.0006591695	0.3657619400
0.6836412500	-0.0009999500	-0.0686393160	0.0006631418	0.3651459800
0.6829327900	-0.0009999500	-0.0686719720	0.0006676895	0.3645547600
0.6822186700	-0.0009999500	-0.0687048060	0.0006712954	0.3639696200
0.6814954900	-0.0009999500	-0.0687379690	0.0006747253	0.3633653800
0.6807605000	-0.0009999500	-0.0687715860	0.0006785600	0.3627586100
0.6800161000	-0.0009999500	-0.0688055530	0.0006821453	0.3621518000