VARIABLES="N","h=(1/N)^(1/3)"  "C<sub>L</sub>", "C<sub>D</sub>" "C_Dp", "C_Dv", "C_MY"
ZONE, t= "FUN3D HeldenMesh Slip3, AOA=5 degree"
78511     0.2335374302E-01  0.224961995    0.023835766    0.01434161     0.009494157    0.009670268 
440973    0.1313800230E-01  0.222019033    0.021261714    0.01117412     0.010087589    0.010386596
3494776   0.6589617684E-02  0.221924149    0.021191641    0.01060818     0.010583466    0.010446797
27326131  0.3320019374E-02  0.221384202    0.021042394    0.01045275     0.010589645    0.010732994
52836685  0.2664944360E-02  0.220938971    0.021056441    0.01045427     0.010602165    0.010869504
