VARIABLES="N","h=(1/N)^(1/3)"  "C_L", "C_D" "C_Dp", "C_Dv", "C_MY"
ZONE, t= "FUN3D Pointwise V1 Mesh, AOA=5 degree"
1709751   0.8362877037E-02  0.2206073E+00  0.2140286E-01  0.1077956E-01  0.1062330E-01  0.1093428E-01
4652444   0.5990176447E-02  0.2204991E+00  0.2116807E-01  0.1060428E-01  0.1056379E-01  0.1105361E-01
9759757   0.4679365820E-02  0.2205156E+00  0.2108705E-01  0.1054569E-01  0.1054136E-01  0.1106733E-01
28746029  0.3264430149E-02  0.2205413E+00  0.2104413E-01  0.1050799E-01  0.1053614E-01  0.1105075E-01
63433898  0.2507414888E-02  0.2205749E+00  0.2103951E-01  0.1049245E-01  0.1054705E-01  0.1103340E-01
