TITLE     = "Surface mesh and solution"
VARIABLES = "x"
"y"
"z"
"cfx"
"Cp"
DATASETAUXDATA alpha_deg="  0.0000000E+00"
DATASETAUXDATA beta_deg="  0.0000000E+00"
DATASETAUXDATA bref="  0.7500000"
DATASETAUXDATA cref="   1.000000"
DATASETAUXDATA itranflg="           0"
DATASETAUXDATA ivisc="           2"
DATASETAUXDATA mach="  0.2000000"
DATASETAUXDATA reue_mil="   4.600000"
DATASETAUXDATA sref="  0.7500000"
DATASETAUXDATA tinf_r="   521.0000"
DATASETAUXDATA xmc="  0.0000000E+00"
DATASETAUXDATA ymc="  0.0000000E+00"
DATASETAUXDATA zmc="  0.0000000E+00"
ZONE T="Slice: Y=-0.73"
STRANDID=0, SOLUTIONTIME=0
Nodes=4015, Elements=4015, ZONETYPE=FELineSeg
DATAPACKING=POINT
DT=(DOUBLE DOUBLE DOUBLE DOUBLE DOUBLE )
0.747068 -0.730000 -0.065371 0.003028	0.227371
0.747072 -0.730000 -0.065371 0.003048	0.227183
0.747107 -0.730000 -0.065369 0.003230	0.229529
0.747127 -0.730000 -0.065368 0.003578	0.227210
0.747127 -0.730000 -0.065368 0.003588	0.227223
0.747128 -0.730000 -0.065368 0.003624	0.227360
0.747138 -0.730000 -0.065367 0.004028	0.229651
0.747140 -0.730000 -0.065367 0.004147	0.229502
0.747143 -0.730000 -0.065367 0.004485	0.229105
0.747146 -0.730000 -0.065367 0.001106	0.219022
0.747146 -0.730000 -0.065367 0.000602	0.217510
0.747146 -0.730000 -0.065367 0.000759	0.218342
0.747143 -0.730000 -0.065366 0.001628	0.225029
0.747141 -0.730000 -0.065366 0.001333	0.227186
0.747138 -0.730000 -0.065365 0.001044	0.225325
0.747137 -0.730000 -0.065365 0.001032	0.225189
0.747137 -0.730000 -0.065365 0.001017	0.225129
0.747130 -0.730000 -0.065363 0.000805	0.226464
0.747116 -0.730000 -0.065360 0.000636	0.225333
0.747110 -0.730000 -0.065358 0.000572	0.225199
0.747101 -0.730000 -0.065356 0.000528	0.224752
0.747072 -0.730000 -0.065349 0.000385	0.223172
0.747045 -0.730000 -0.065343 0.000322	0.222471
0.747019 -0.730000 -0.065337 0.000287	0.221908
0.746966 -0.730000 -0.065324 0.000275	0.220329
0.746941 -0.730000 -0.065318 0.000273	0.219619
0.746867 -0.730000 -0.065301 0.000286	0.217838
0.746768 -0.730000 -0.065277 0.000309	0.215787
0.746692 -0.730000 -0.065260 0.000333	0.214434
0.746524 -0.730000 -0.065220 0.000388	0.211476
0.746240 -0.730000 -0.065153 0.000456	0.205645
0.746143 -0.730000 -0.065130 0.000474	0.203918
0.746012 -0.730000 -0.065100 0.000518	0.201415
0.745576 -0.730000 -0.064997 0.000694	0.193751
0.744977 -0.730000 -0.064856 0.000821	0.182773
0.744855 -0.730000 -0.064827 0.000843	0.180368
0.744343 -0.730000 -0.064707 0.000985	0.171829
0.744010 -0.730000 -0.064629 0.001073	0.166438
0.743841 -0.730000 -0.064589 0.001106	0.163950
0.743186 -0.730000 -0.064435 0.001230	0.154064
0.742398 -0.730000 -0.064249 0.001350	0.142430
0.742345 -0.730000 -0.064237 0.001360	0.141672
0.742300 -0.730000 -0.064226 0.001367	0.141057
0.741458 -0.730000 -0.064029 0.001493	0.129211
0.741244 -0.730000 -0.063978 0.001517	0.126489
0.740550 -0.730000 -0.063816 0.001636	0.117650
0.740040 -0.730000 -0.063696 0.001697	0.111584
0.739652 -0.730000 -0.063605 0.001751	0.106856
0.739142 -0.730000 -0.063486 0.001821	0.100823
0.738755 -0.730000 -0.063395 0.001876	0.096313
0.737773 -0.730000 -0.063165 0.001967	0.085978
0.737736 -0.730000 -0.063156 0.001970	0.085601
0.737692 -0.730000 -0.063146 0.001974	0.085170
0.736757 -0.730000 -0.062927 0.002062	0.075778
0.735988 -0.730000 -0.062748 0.002144	0.068599
0.735938 -0.730000 -0.062736 0.002149	0.068140
0.735861 -0.730000 -0.062718 0.002154	0.067468
0.735164 -0.730000 -0.062555 0.002203	0.061584
0.734384 -0.730000 -0.062373 0.002249	0.055229
0.734345 -0.730000 -0.062364 0.002252	0.054918
0.734285 -0.730000 -0.062350 0.002256	0.054443
0.733560 -0.730000 -0.062181 0.002300	0.048865
0.733102 -0.730000 -0.062074 0.002334	0.045450
0.732788 -0.730000 -0.062001 0.002357	0.043104
0.732301 -0.730000 -0.061888 0.002393	0.039479
0.732074 -0.730000 -0.061835 0.002410	0.037807
0.731222 -0.730000 -0.061636 0.002463	0.031772
0.731212 -0.730000 -0.061634 0.002464	0.031702
0.731205 -0.730000 -0.061633 0.002464	0.031657
0.731181 -0.730000 -0.061627 0.002466	0.031503
0.730158 -0.730000 -0.061389 0.002521	0.025105
0.729202 -0.730000 -0.061167 0.002587	0.019052
0.729138 -0.730000 -0.061152 0.002590	0.018623
0.729106 -0.730000 -0.061144 0.002592	0.018436
0.728067 -0.730000 -0.060903 0.002632	0.012649
0.727665 -0.730000 -0.060810 0.002652	0.010554
0.726834 -0.730000 -0.060617 0.002695	0.006279
0.726165 -0.730000 -0.060462 0.002726	0.003044
0.725284 -0.730000 -0.060258 0.002764	-0.001049
0.724518 -0.730000 -0.060080 0.002798	-0.004348
0.723893 -0.730000 -0.059935 0.002818	-0.006842
0.723118 -0.730000 -0.059756 0.002843	-0.009791
0.722431 -0.730000 -0.059597 0.002862	-0.012364
0.721413 -0.730000 -0.059362 0.002881	-0.015976
0.721030 -0.730000 -0.059274 0.002896	-0.017305
0.720026 -0.730000 -0.059042 0.002933	-0.020501
0.719367 -0.730000 -0.058890 0.002939	-0.022518
0.718585 -0.730000 -0.058710 0.002961	-0.024727
0.717869 -0.730000 -0.058545 0.002989	-0.026708
0.716608 -0.730000 -0.058255 0.003010	-0.029833
0.716576 -0.730000 -0.058248 0.003011	-0.029912
0.716541 -0.730000 -0.058240 0.003011	-0.029994
0.715231 -0.730000 -0.057939 0.003046	-0.033024
0.713743 -0.730000 -0.057597 0.003077	-0.036179
0.713670 -0.730000 -0.057581 0.003079	-0.036330
0.713638 -0.730000 -0.057573 0.003080	-0.036386
0.713287 -0.730000 -0.057493 0.003082	-0.037007
0.712096 -0.730000 -0.057220 0.003092	-0.039090
0.711937 -0.730000 -0.057183 0.003094	-0.039396
0.710779 -0.730000 -0.056918 0.003120	-0.041323
0.709909 -0.730000 -0.056719 0.003138	-0.042585
0.708980 -0.730000 -0.056507 0.003148	-0.043886
0.708268 -0.730000 -0.056344 0.003160	-0.044907
0.707076 -0.730000 -0.056072 0.003172	-0.046401
0.706592 -0.730000 -0.055961 0.003178	-0.046933
0.705974 -0.730000 -0.055820 0.003191	-0.047475
0.704955 -0.730000 -0.055588 0.003210	-0.048377
0.704180 -0.730000 -0.055411 0.003225	-0.048920
0.703575 -0.730000 -0.055274 0.003235	-0.049356
0.702544 -0.730000 -0.055039 0.003255	-0.049788
0.702176 -0.730000 -0.054955 0.003260	-0.049840
0.701863 -0.730000 -0.054884 0.003263	-0.049929
0.700910 -0.730000 -0.054668 0.003261	-0.050125
0.700195 -0.730000 -0.054506 0.003268	-0.050332
0.699469 -0.730000 -0.054341 0.003270	-0.050627
0.698204 -0.730000 -0.054054 0.003270	-0.051044
0.697966 -0.730000 -0.054000 0.003271	-0.051120
0.697740 -0.730000 -0.053949 0.003270	-0.051150
0.696530 -0.730000 -0.053675 0.003267	-0.051190
0.695664 -0.730000 -0.053479 0.003272	-0.051343
0.694997 -0.730000 -0.053329 0.003278	-0.051412
0.694190 -0.730000 -0.053146 0.003279	-0.051363
0.692798 -0.730000 -0.052832 0.003289	-0.051335
0.692704 -0.730000 -0.052811 0.003289	-0.051330
0.692664 -0.730000 -0.052802 0.003289	-0.051325
0.690862 -0.730000 -0.052395 0.003292	-0.050834
0.690714 -0.730000 -0.052362 0.003293	-0.050793
0.690710 -0.730000 -0.052361 0.003293	-0.050792
0.690698 -0.730000 -0.052358 0.003293	-0.050787
0.688893 -0.730000 -0.051952 0.003310	-0.049992
0.688501 -0.730000 -0.051864 0.003314	-0.049891
0.687529 -0.730000 -0.051645 0.003310	-0.049489
0.686796 -0.730000 -0.051480 0.003310	-0.049089
0.685424 -0.730000 -0.051172 0.003330	-0.048329
0.685227 -0.730000 -0.051128 0.003331	-0.048195
0.684941 -0.730000 -0.051064 0.003333	-0.047999
0.683838 -0.730000 -0.050817 0.003332	-0.047141
0.682557 -0.730000 -0.050530 0.003322	-0.046272
0.682260 -0.730000 -0.050463 0.003319	-0.046023
0.682078 -0.730000 -0.050423 0.003318	-0.045879
0.680635 -0.730000 -0.050100 0.003323	-0.044630
0.680008 -0.730000 -0.049960 0.003325	-0.044145
0.679136 -0.730000 -0.049765 0.003322	-0.043392
0.678197 -0.730000 -0.049556 0.003324	-0.042669
0.677598 -0.730000 -0.049422 0.003320	-0.042200
0.676429 -0.730000 -0.049162 0.003313	-0.041273
0.675787 -0.730000 -0.049019 0.003312	-0.040802
0.674710 -0.730000 -0.048779 0.003308	-0.039803
0.673941 -0.730000 -0.048608 0.003305	-0.039150
0.673037 -0.730000 -0.048407 0.003306	-0.038192
0.672218 -0.730000 -0.048225 0.003308	-0.037412
0.671458 -0.730000 -0.048056 0.003314	-0.036612
0.670708 -0.730000 -0.047890 0.003316	-0.035824
0.669551 -0.730000 -0.047633 0.003310	-0.034692
0.669388 -0.730000 -0.047597 0.003309	-0.034517
0.669158 -0.730000 -0.047546 0.003307	-0.034294
0.668057 -0.730000 -0.047302 0.003301	-0.033170
0.666948 -0.730000 -0.047057 0.003289	-0.032161
0.666658 -0.730000 -0.046993 0.003286	-0.031841
0.666312 -0.730000 -0.046916 0.003284	-0.031512
0.665178 -0.730000 -0.046666 0.003274	-0.030286
0.664228 -0.730000 -0.046456 0.003277	-0.029372
0.663532 -0.730000 -0.046302 0.003279	-0.028623
0.662286 -0.730000 -0.046028 0.003277	-0.027335
0.661969 -0.730000 -0.045958 0.003277	-0.027020
0.661777 -0.730000 -0.045916 0.003276	-0.026781
0.660494 -0.730000 -0.045633 0.003268	-0.025147
0.659599 -0.730000 -0.045436 0.003266	-0.024113
0.658928 -0.730000 -0.045288 0.003266	-0.023336
0.657485 -0.730000 -0.044971 0.003257	-0.021531
0.657461 -0.730000 -0.044966 0.003257	-0.021497
0.657441 -0.730000 -0.044962 0.003256	-0.021470
0.656144 -0.730000 -0.044677 0.003241	-0.019578
0.655017 -0.730000 -0.044430 0.003235	-0.017996
0.654587 -0.730000 -0.044336 0.003233	-0.017385
0.654172 -0.730000 -0.044245 0.003233	-0.016866
0.652927 -0.730000 -0.043972 0.003229	-0.015148
0.652175 -0.730000 -0.043808 0.003217	-0.014205
0.651202 -0.730000 -0.043595 0.003200	-0.012967
0.649724 -0.730000 -0.043273 0.003192	-0.011262
0.649613 -0.730000 -0.043248 0.003191	-0.011126
0.649493 -0.730000 -0.043222 0.003191	-0.010987
0.647893 -0.730000 -0.042873 0.003180	-0.009025
0.647275 -0.730000 -0.042739 0.003172	-0.008288
0.646371 -0.730000 -0.042542 0.003169	-0.007202
0.645332 -0.730000 -0.042316 0.003162	-0.005944
0.644786 -0.730000 -0.042197 0.003160	-0.005294
0.644193 -0.730000 -0.042068 0.003167	-0.004654
0.643505 -0.730000 -0.041918 0.003170	-0.003795
0.642795 -0.730000 -0.041764 0.003162	-0.002862
0.641833 -0.730000 -0.041555 0.003164	-0.001757
0.641285 -0.730000 -0.041436 0.003159	-0.001073
0.640053 -0.730000 -0.041169 0.003150	0.000573
0.639788 -0.730000 -0.041112 0.003149	0.000917
0.638461 -0.730000 -0.040824 0.003139	0.002624
0.638181 -0.730000 -0.040764 0.003136	0.002997
0.638149 -0.730000 -0.040757 0.003136	0.003042
0.636390 -0.730000 -0.040376 0.003128	0.005391
0.636309 -0.730000 -0.040359 0.003127	0.005526
0.636214 -0.730000 -0.040338 0.003126	0.005627
0.635051 -0.730000 -0.040087 0.003115	0.007059
0.634527 -0.730000 -0.039974 0.003111	0.007722
0.634457 -0.730000 -0.039958 0.003110	0.007814
0.633960 -0.730000 -0.039851 0.003110	0.008482
0.632992 -0.730000 -0.039643 0.003110	0.009827
0.632894 -0.730000 -0.039621 0.003109	0.009975
0.631361 -0.730000 -0.039291 0.003106	0.012019
0.631221 -0.730000 -0.039261 0.003104	0.012246
0.630978 -0.730000 -0.039209 0.003104	0.012551
0.629956 -0.730000 -0.038989 0.003091	0.014073
0.629117 -0.730000 -0.038809 0.003096	0.015174
0.628564 -0.730000 -0.038690 0.003098	0.015929
0.627448 -0.730000 -0.038450 0.003092	0.017163
0.627070 -0.730000 -0.038369 0.003088	0.017669
0.626954 -0.730000 -0.038344 0.003086	0.017827
0.626420 -0.730000 -0.038230 0.003079	0.018414
0.625402 -0.730000 -0.038011 0.003067	0.019770
0.624986 -0.730000 -0.037922 0.003062	0.020247
0.623752 -0.730000 -0.037658 0.003053	0.021628
0.623061 -0.730000 -0.037510 0.003042	0.022430
0.622364 -0.730000 -0.037361 0.003034	0.023600
0.621416 -0.730000 -0.037158 0.003016	0.024522
0.620951 -0.730000 -0.037059 0.003007	0.025115
0.620280 -0.730000 -0.036916 0.003002	0.025875
0.619643 -0.730000 -0.036780 0.002998	0.026780
0.618517 -0.730000 -0.036539 0.002993	0.028049
0.618250 -0.730000 -0.036482 0.002991	0.028372
0.616888 -0.730000 -0.036192 0.002977	0.029972
0.616519 -0.730000 -0.036113 0.002977	0.030464
0.615461 -0.730000 -0.035888 0.002980	0.031604
0.614744 -0.730000 -0.035735 0.002980	0.032535
0.614269 -0.730000 -0.035634 0.002978	0.033071
0.613001 -0.730000 -0.035365 0.002964	0.034784
0.611997 -0.730000 -0.035151 0.002958	0.036030
0.611569 -0.730000 -0.035061 0.002954	0.036680
0.611270 -0.730000 -0.034997 0.002951	0.037085
0.610162 -0.730000 -0.034762 0.002938	0.038763
0.609039 -0.730000 -0.034524 0.002937	0.040037
0.608946 -0.730000 -0.034505 0.002937	0.040162
0.607653 -0.730000 -0.034231 0.002919	0.041874
0.607403 -0.730000 -0.034178 0.002917	0.042202
0.606198 -0.730000 -0.033924 0.002907	0.043343
0.605948 -0.730000 -0.033871 0.002904	0.043626
0.605913 -0.730000 -0.033863 0.002905	0.043669
0.605817 -0.730000 -0.033843 0.002904	0.043761
0.604558 -0.730000 -0.033577 0.002889	0.045530
0.603693 -0.730000 -0.033395 0.002877	0.046336
0.603097 -0.730000 -0.033269 0.002871	0.047186
0.602326 -0.730000 -0.033107 0.002872	0.047811
0.601589 -0.730000 -0.032952 0.002871	0.048730
0.600913 -0.730000 -0.032809 0.002868	0.048984
0.600080 -0.730000 -0.032634 0.002858	0.049920
0.599403 -0.730000 -0.032492 0.002850	0.050619
0.598620 -0.730000 -0.032327 0.002838	0.052011
0.597639 -0.730000 -0.032121 0.002835	0.052672
0.597171 -0.730000 -0.032023 0.002831	0.053269
0.596719 -0.730000 -0.031928 0.002823	0.053683
0.595731 -0.730000 -0.031720 0.002803	0.055098
0.594568 -0.730000 -0.031477 0.002800	0.055926
0.594319 -0.730000 -0.031424 0.002800	0.056237
0.594160 -0.730000 -0.031391 0.002796	0.056367
0.592853 -0.730000 -0.031117 0.002779	0.058099
0.592285 -0.730000 -0.030998 0.002782	0.058673
0.591565 -0.730000 -0.030848 0.002784	0.059536
0.590906 -0.730000 -0.030710 0.002787	0.060182
0.589814 -0.730000 -0.030482 0.002771	0.061213
0.589741 -0.730000 -0.030466 0.002771	0.061292
0.588619 -0.730000 -0.030232 0.002764	0.062425
0.588491 -0.730000 -0.030205 0.002764	0.062558
0.588479 -0.730000 -0.030203 0.002764	0.062570
0.587135 -0.730000 -0.029923 0.002763	0.064030
0.586829 -0.730000 -0.029859 0.002760	0.064357
0.585796 -0.730000 -0.029644 0.002741	0.065468
0.584915 -0.730000 -0.029461 0.002741	0.066360
0.584470 -0.730000 -0.029368 0.002739	0.066830
0.583943 -0.730000 -0.029258 0.002732	0.067362
0.583128 -0.730000 -0.029089 0.002726	0.068216
0.582199 -0.730000 -0.028896 0.002722	0.069097
0.581576 -0.730000 -0.028767 0.002723	0.069747
0.581308 -0.730000 -0.028711 0.002722	0.070012
0.581047 -0.730000 -0.028657 0.002720	0.070256
0.579811 -0.730000 -0.028401 0.002714	0.071756
0.579084 -0.730000 -0.028250 0.002700	0.072430
0.578381 -0.730000 -0.028105 0.002688	0.073179
0.577262 -0.730000 -0.027873 0.002668	0.074006
0.577222 -0.730000 -0.027865 0.002667	0.074051
0.577152 -0.730000 -0.027850 0.002667	0.074105
0.575983 -0.730000 -0.027609 0.002659	0.075313
0.575554 -0.730000 -0.027520 0.002660	0.075655
0.574575 -0.730000 -0.027318 0.002659	0.076491
0.573598 -0.730000 -0.027117 0.002653	0.077166
0.573209 -0.730000 -0.027036 0.002647	0.077504
0.571940 -0.730000 -0.026775 0.002620	0.078058
0.571850 -0.730000 -0.026756 0.002618	0.078114
0.571832 -0.730000 -0.026752 0.002618	0.078136
0.571758 -0.730000 -0.026737 0.002618	0.078077
0.570501 -0.730000 -0.026478 0.002623	0.078342
0.569902 -0.730000 -0.026355 0.002615	0.078821
0.569317 -0.730000 -0.026234 0.002605	0.080122
0.568075 -0.730000 -0.025979 0.002597	0.081499
0.567750 -0.730000 -0.025912 0.002597	0.081775
0.567243 -0.730000 -0.025808 0.002596	0.082191
0.566626 -0.730000 -0.025681 0.002595	0.082752
0.565665 -0.730000 -0.025484 0.002599	0.083659
0.565528 -0.730000 -0.025455 0.002599	0.083784
0.564506 -0.730000 -0.025246 0.002578	0.084650
0.564287 -0.730000 -0.025201 0.002577	0.084817
0.563433 -0.730000 -0.025026 0.002579	0.085577
0.562608 -0.730000 -0.024857 0.002572	0.086320
0.562066 -0.730000 -0.024746 0.002563	0.086814
0.561154 -0.730000 -0.024559 0.002567	0.087610
0.560723 -0.730000 -0.024471 0.002568	0.087928
0.560154 -0.730000 -0.024355 0.002564	0.088740
0.559334 -0.730000 -0.024187 0.002553	0.089578
0.559000 -0.730000 -0.024119 0.002551	0.090248
0.558208 -0.730000 -0.023958 0.002541	0.090669
0.557505 -0.730000 -0.023814 0.002539	0.090794
0.557391 -0.730000 -0.023791 0.002537	0.090837
0.556989 -0.730000 -0.023709 0.002534	0.091156
0.555975 -0.730000 -0.023503 0.002523	0.092006
0.555736 -0.730000 -0.023454 0.002523	0.092101
0.554485 -0.730000 -0.023199 0.002520	0.092945
0.553903 -0.730000 -0.023081 0.002514	0.093876
0.552683 -0.730000 -0.022833 0.002496	0.095019
0.551959 -0.730000 -0.022686 0.002489	0.095352
0.551345 -0.730000 -0.022562 0.002480	0.095835
0.550921 -0.730000 -0.022476 0.002477	0.095925
0.549887 -0.730000 -0.022266 0.002469	0.096548
0.549359 -0.730000 -0.022159 0.002463	0.097188
0.548308 -0.730000 -0.021946 0.002462	0.097187
0.547897 -0.730000 -0.021863 0.002458	0.097307
0.547022 -0.730000 -0.021685 0.002448	0.098473
0.545585 -0.730000 -0.021395 0.002461	0.098274
0.545518 -0.730000 -0.021381 0.002461	0.098340
0.545418 -0.730000 -0.021361 0.002461	0.098393
0.544036 -0.730000 -0.021082 0.002449	0.100334
0.543108 -0.730000 -0.020894 0.002442	0.100093
0.542701 -0.730000 -0.020812 0.002437	0.100479
0.541283 -0.730000 -0.020526 0.002431	0.101547
0.541270 -0.730000 -0.020524 0.002431	0.101553
0.541213 -0.730000 -0.020512 0.002430	0.101550
0.539884 -0.730000 -0.020245 0.002422	0.101673
0.539286 -0.730000 -0.020124 0.002418	0.102285
0.538627 -0.730000 -0.019991 0.002412	0.103286
0.538417 -0.730000 -0.019949 0.002411	0.103398
0.538194 -0.730000 -0.019904 0.002410	0.103549
0.536971 -0.730000 -0.019659 0.002400	0.104157
0.535681 -0.730000 -0.019400 0.002378	0.104196
0.535543 -0.730000 -0.019372 0.002378	0.104327
0.535301 -0.730000 -0.019323 0.002376	0.104453
0.534083 -0.730000 -0.019079 0.002371	0.105918
0.533434 -0.730000 -0.018949 0.002376	0.106249
0.532785 -0.730000 -0.018819 0.002376	0.106653
0.532206 -0.730000 -0.018703 0.002366	0.107201
0.531468 -0.730000 -0.018555 0.002353	0.107548
0.530014 -0.730000 -0.018265 0.002333	0.107480
0.529937 -0.730000 -0.018249 0.002332	0.107510
0.529856 -0.730000 -0.018233 0.002332	0.107557
0.528564 -0.730000 -0.017975 0.002328	0.109182
0.528058 -0.730000 -0.017874 0.002323	0.109401
0.526510 -0.730000 -0.017565 0.002310	0.110237
0.526357 -0.730000 -0.017535 0.002310	0.110304
0.525138 -0.730000 -0.017292 0.002315	0.110710
0.524613 -0.730000 -0.017187 0.002317	0.110899
0.524550 -0.730000 -0.017175 0.002316	0.110926
0.524192 -0.730000 -0.017104 0.002314	0.111086
0.522979 -0.730000 -0.016862 0.002305	0.111697
0.522815 -0.730000 -0.016830 0.002303	0.111770
0.521469 -0.730000 -0.016562 0.002293	0.112492
0.521107 -0.730000 -0.016490 0.002291	0.112670
0.519844 -0.730000 -0.016239 0.002288	0.113218
0.519441 -0.730000 -0.016159 0.002283	0.113393
0.518226 -0.730000 -0.015918 0.002287	0.113803
0.517852 -0.730000 -0.015844 0.002286	0.113956
0.517688 -0.730000 -0.015812 0.002286	0.114028
0.516506 -0.730000 -0.015578 0.002275	0.114663
0.515994 -0.730000 -0.015477 0.002270	0.114931
0.515009 -0.730000 -0.015282 0.002268	0.115315
0.514841 -0.730000 -0.015248 0.002267	0.115392
0.513668 -0.730000 -0.015017 0.002256	0.115642
0.513188 -0.730000 -0.014922 0.002247	0.115883
0.512145 -0.730000 -0.014716 0.002233	0.116853
0.511680 -0.730000 -0.014625 0.002234	0.117036
0.510028 -0.730000 -0.014299 0.002227	0.117717
0.509860 -0.730000 -0.014266 0.002226	0.117803
0.509698 -0.730000 -0.014235 0.002226	0.117864
0.507813 -0.730000 -0.013864 0.002219	0.118691
0.507404 -0.730000 -0.013783 0.002218	0.118876
0.506904 -0.730000 -0.013685 0.002219	0.119061
0.505889 -0.730000 -0.013486 0.002224	0.119483
0.504891 -0.730000 -0.013290 0.002227	0.119822
0.504394 -0.730000 -0.013193 0.002224	0.119991
0.503499 -0.730000 -0.013017 0.002214	0.120327
0.502835 -0.730000 -0.012887 0.002211	0.120583
0.501560 -0.730000 -0.012638 0.002204	0.120982
0.501337 -0.730000 -0.012594 0.002202	0.121058
0.499780 -0.730000 -0.012290 0.002185	0.121506
0.499503 -0.730000 -0.012236 0.002183	0.121591
0.498809 -0.730000 -0.012100 0.002179	0.121817
0.497870 -0.730000 -0.011917 0.002174	0.122120
0.497510 -0.730000 -0.011847 0.002173	0.122230
0.496268 -0.730000 -0.011605 0.002160	0.122604
0.495990 -0.730000 -0.011551 0.002159	0.122657
0.494536 -0.730000 -0.011268 0.002153	0.123298
0.493244 -0.730000 -0.011017 0.002152	0.123256
0.492724 -0.730000 -0.010915 0.002148	0.123404
0.492237 -0.730000 -0.010821 0.002142	0.123691
0.490524 -0.730000 -0.010488 0.002124	0.124354
0.488825 -0.730000 -0.010159 0.002125	0.124411
0.488280 -0.730000 -0.010053 0.002126	0.124541
0.487785 -0.730000 -0.009957 0.002121	0.124683
0.486101 -0.730000 -0.009631 0.002106	0.125168
0.484723 -0.730000 -0.009365 0.002105	0.125535
0.484103 -0.730000 -0.009245 0.002106	0.125717
0.483550 -0.730000 -0.009138 0.002102	0.125858
0.482232 -0.730000 -0.008884 0.002098	0.126221
0.481297 -0.730000 -0.008704 0.002103	0.126499
0.480343 -0.730000 -0.008520 0.002104	0.126745
0.479338 -0.730000 -0.008327 0.002093	0.127013
0.478368 -0.730000 -0.008140 0.002088	0.127250
0.477287 -0.730000 -0.007932 0.002086	0.127486
0.476316 -0.730000 -0.007746 0.002083	0.127663
0.475224 -0.730000 -0.007537 0.002077	0.127836
0.474461 -0.730000 -0.007390 0.002073	0.127954
0.473137 -0.730000 -0.007137 0.002064	0.128177
0.472713 -0.730000 -0.007056 0.002061	0.128261
0.471519 -0.730000 -0.006827 0.002055	0.128545
0.470585 -0.730000 -0.006649 0.002054	0.128727
0.469313 -0.730000 -0.006406 0.002057	0.128956
0.468610 -0.730000 -0.006272 0.002050	0.129080
0.466916 -0.730000 -0.005949 0.002044	0.129380
0.466098 -0.730000 -0.005793 0.002047	0.129492
0.465157 -0.730000 -0.005614 0.002044	0.129633
0.463768 -0.730000 -0.005350 0.002029	0.129755
0.463255 -0.730000 -0.005253 0.002026	0.129788
0.462877 -0.730000 -0.005181 0.002023	0.129828
0.461255 -0.730000 -0.004873 0.002026	0.129980
0.460897 -0.730000 -0.004805 0.002023	0.130008
0.459212 -0.730000 -0.004486 0.002016	0.130150
0.459118 -0.730000 -0.004468 0.002016	0.130156
0.456927 -0.730000 -0.004054 0.002014	0.130335
0.456010 -0.730000 -0.003881 0.002015	0.130405
0.455026 -0.730000 -0.003695 0.002017	0.130483
0.454711 -0.730000 -0.003635 0.002018	0.130525
0.452528 -0.730000 -0.003223 0.002015	0.130641
0.452497 -0.730000 -0.003218 0.002015	0.130643
0.452491 -0.730000 -0.003216 0.002015	0.130643
0.452470 -0.730000 -0.003213 0.002015	0.130644
0.450408 -0.730000 -0.002825 0.002008	0.130749
0.449523 -0.730000 -0.002658 0.002006	0.130780
0.447956 -0.730000 -0.002364 0.002005	0.130853
0.447392 -0.730000 -0.002258 0.002003	0.130890
0.446043 -0.730000 -0.002005 0.001996	0.131042
0.445188 -0.730000 -0.001845 0.001996	0.131145
0.443936 -0.730000 -0.001611 0.001992	0.131327
0.443216 -0.730000 -0.001477 0.001988	0.131416
0.441801 -0.730000 -0.001212 0.001989	0.131525
0.441176 -0.730000 -0.001096 0.001989	0.131562
0.438982 -0.730000 -0.000687 0.001972	0.131580
0.438958 -0.730000 -0.000683 0.001972	0.131581
0.438946 -0.730000 -0.000680 0.001972	0.131580
0.436881 -0.730000 -0.000296 0.001963	0.131591
0.435096 -0.730000 0.000035 0.001949	0.131494
0.434743 -0.730000 0.000101 0.001947	0.131485
0.433765 -0.730000 0.000282 0.001946	0.131464
0.432643 -0.730000 0.000490 0.001948	0.131440
0.432155 -0.730000 0.000580 0.001949	0.131443
0.430788 -0.730000 0.000833 0.001960	0.131457
0.429991 -0.730000 0.000981 0.001961	0.131469
0.429288 -0.730000 0.001111 0.001961	0.131466
0.427680 -0.730000 0.001408 0.001954	0.131433
0.427607 -0.730000 0.001421 0.001954	0.131435
0.427507 -0.730000 0.001439 0.001953	0.131435
0.426163 -0.730000 0.001687 0.001951	0.131436
0.425239 -0.730000 0.001857 0.001952	0.131409
0.424062 -0.730000 0.002074 0.001952	0.131320
0.423055 -0.730000 0.002259 0.001946	0.131267
0.422227 -0.730000 0.002411 0.001941	0.131215
0.421063 -0.730000 0.002625 0.001946	0.131251
0.420449 -0.730000 0.002737 0.001945	0.131265
0.419448 -0.730000 0.002921 0.001942	0.131248
0.418670 -0.730000 0.003063 0.001940	0.131243
0.418320 -0.730000 0.003127 0.001938	0.131217
0.416774 -0.730000 0.003410 0.001942	0.131121
0.416387 -0.730000 0.003481 0.001941	0.131085
0.414808 -0.730000 0.003769 0.001934	0.130963
0.413958 -0.730000 0.003924 0.001940	0.130876
0.411832 -0.730000 0.004311 0.001923	0.130660
0.411543 -0.730000 0.004364 0.001922	0.130634
0.411306 -0.730000 0.004407 0.001922	0.130615
0.409541 -0.730000 0.004727 0.001927	0.130452
0.407824 -0.730000 0.005039 0.001918	0.130209
0.407686 -0.730000 0.005064 0.001917	0.130193
0.407361 -0.730000 0.005123 0.001917	0.130155
0.405370 -0.730000 0.005483 0.001913	0.129946
0.404841 -0.730000 0.005579 0.001912	0.129873
0.403720 -0.730000 0.005782 0.001911	0.129804
0.402136 -0.730000 0.006068 0.001913	0.129730
0.400156 -0.730000 0.006425 0.001914	0.129612
0.399690 -0.730000 0.006509 0.001915	0.129584
0.399365 -0.730000 0.006567 0.001915	0.129543
0.397524 -0.730000 0.006898 0.001927	0.129299
0.395651 -0.730000 0.007235 0.001927	0.129022
0.395325 -0.730000 0.007293 0.001926	0.128980
0.394087 -0.730000 0.007515 0.001931	0.128799
0.393040 -0.730000 0.007702 0.001935	0.128650
0.391339 -0.730000 0.008006 0.001934	0.128425
0.391073 -0.730000 0.008054 0.001936	0.128398
0.389132 -0.730000 0.008400 0.001933	0.128215
0.388681 -0.730000 0.008480 0.001932	0.128174
0.388636 -0.730000 0.008489 0.001932	0.128170
0.386717 -0.730000 0.008830 0.001946	0.127975
0.386571 -0.730000 0.008856 0.001946	0.127957
0.384536 -0.730000 0.009217 0.001929	0.127640
0.383787 -0.730000 0.009350 0.001928	0.127517
0.382273 -0.730000 0.009618 0.001923	0.127232
0.381307 -0.730000 0.009789 0.001928	0.127014
0.379950 -0.730000 0.010029 0.001933	0.126666
0.378701 -0.730000 0.010249 0.001930	0.126358
0.377580 -0.730000 0.010447 0.001935	0.126090
0.375591 -0.730000 0.010798 0.001951	0.125690
0.375255 -0.730000 0.010857 0.001951	0.125623
0.374902 -0.730000 0.010919 0.001951	0.125550
0.373071 -0.730000 0.011241 0.001948	0.125162
0.372047 -0.730000 0.011420 0.001962	0.125000
0.369795 -0.730000 0.011815 0.001972	0.124642
0.369780 -0.730000 0.011818 0.001972	0.124638
0.369770 -0.730000 0.011819 0.001972	0.124637
0.369632 -0.730000 0.011844 0.001973	0.124612
0.367413 -0.730000 0.012231 0.001981	0.124211
0.367170 -0.730000 0.012274 0.001983	0.124176
0.365422 -0.730000 0.012578 0.001984	0.123917
0.363700 -0.730000 0.012878 0.001978	0.123741
0.363317 -0.730000 0.012945 0.001976	0.123694
0.361462 -0.730000 0.013267 0.001972	0.123308
0.360917 -0.730000 0.013361 0.001973	0.123183
0.359194 -0.730000 0.013660 0.001969	0.122820
0.358497 -0.730000 0.013780 0.001971	0.122633
0.356895 -0.730000 0.014057 0.001976	0.122127
0.354965 -0.730000 0.014390 0.001975	0.121480
0.354448 -0.730000 0.014480 0.001976	0.121295
0.353041 -0.730000 0.014722 0.001978	0.120876
0.351987 -0.730000 0.014903 0.001979	0.120556
0.351751 -0.730000 0.014944 0.001980	0.120480
0.350250 -0.730000 0.015201 0.001981	0.120077
0.349293 -0.730000 0.015365 0.001982	0.119818
0.349140 -0.730000 0.015392 0.001982	0.119777
0.346826 -0.730000 0.015788 0.001989	0.119224
0.346215 -0.730000 0.015892 0.001991	0.119040
0.344644 -0.730000 0.016160 0.001991	0.118575
0.343515 -0.730000 0.016353 0.001997	0.118357
0.342964 -0.730000 0.016447 0.001998	0.118243
0.342316 -0.730000 0.016557 0.002000	0.118121
0.341669 -0.730000 0.016667 0.002001	0.117994
0.341316 -0.730000 0.016727 0.002002	0.117893
0.340338 -0.730000 0.016893 0.002000	0.117575
0.339461 -0.730000 0.017042 0.002000	0.117314
0.338721 -0.730000 0.017168 0.001999	0.117100
0.337270 -0.730000 0.017414 0.002003	0.116625
0.336807 -0.730000 0.017492 0.002003	0.116483
0.336609 -0.730000 0.017525 0.002006	0.116414
0.335108 -0.730000 0.017779 0.001992	0.115887
0.334746 -0.730000 0.017840 0.001990	0.115761
0.334700 -0.730000 0.017848 0.001990	0.115749
0.332727 -0.730000 0.018181 0.002004	0.115369
0.332297 -0.730000 0.018253 0.002006	0.115278
0.330935 -0.730000 0.018482 0.002016	0.114916
0.330184 -0.730000 0.018609 0.002022	0.114712
0.328800 -0.730000 0.018841 0.002018	0.114316
0.327965 -0.730000 0.018981 0.002017	0.114078
0.327762 -0.730000 0.019015 0.002017	0.114040
0.326085 -0.730000 0.019295 0.002025	0.113788
0.324704 -0.730000 0.019526 0.002031	0.113530
0.324117 -0.730000 0.019623 0.002032	0.113406
0.321604 -0.730000 0.020042 0.002035	0.112752
0.321536 -0.730000 0.020053 0.002035	0.112732
0.319682 -0.730000 0.020360 0.002038	0.112095
0.318943 -0.730000 0.020483 0.002038	0.111797
0.317921 -0.730000 0.020652 0.002033	0.111382
0.317289 -0.730000 0.020757 0.002034	0.111160
0.315886 -0.730000 0.020989 0.002044	0.110650
0.314490 -0.730000 0.021219 0.002048	0.110098
0.314033 -0.730000 0.021294 0.002051	0.109909
0.313754 -0.730000 0.021340 0.002054	0.109794
0.311662 -0.730000 0.021685 0.002053	0.109033
0.311583 -0.730000 0.021698 0.002053	0.109007
0.311501 -0.730000 0.021711 0.002053	0.108977
0.309310 -0.730000 0.022071 0.002064	0.108147
0.309233 -0.730000 0.022083 0.002064	0.108118
0.309229 -0.730000 0.022084 0.002064	0.108116
0.307377 -0.730000 0.022387 0.002060	0.107447
0.306644 -0.730000 0.022507 0.002061	0.107210
0.305672 -0.730000 0.022666 0.002065	0.106918
0.304212 -0.730000 0.022904 0.002069	0.106485
0.303917 -0.730000 0.022952 0.002068	0.106387
0.303426 -0.730000 0.023032 0.002073	0.106263
0.302232 -0.730000 0.023226 0.002082	0.105883
0.301545 -0.730000 0.023338 0.002079	0.105653
0.300510 -0.730000 0.023506 0.002076	0.105279
0.299642 -0.730000 0.023646 0.002079	0.105016
0.298871 -0.730000 0.023771 0.002078	0.104707
0.297868 -0.730000 0.023933 0.002075	0.104437
0.297296 -0.730000 0.024026 0.002075	0.104256
0.295628 -0.730000 0.024294 0.002083	0.103722
0.295311 -0.730000 0.024346 0.002084	0.103628
0.295230 -0.730000 0.024359 0.002085	0.103591
0.295159 -0.730000 0.024370 0.002086	0.103565
0.293725 -0.730000 0.024601 0.002096	0.103077
0.293330 -0.730000 0.024664 0.002099	0.102939
0.293285 -0.730000 0.024671 0.002099	0.102919
0.291616 -0.730000 0.024939 0.002105	0.102149
0.291002 -0.730000 0.025038 0.002103	0.101865
0.290363 -0.730000 0.025140 0.002102	0.101564
0.289723 -0.730000 0.025242 0.002106	0.101347
0.289001 -0.730000 0.025358 0.002116	0.101098
0.287924 -0.730000 0.025530 0.002115	0.100663
0.287150 -0.730000 0.025653 0.002115	0.100333
0.286059 -0.730000 0.025827 0.002118	0.099860
0.284961 -0.730000 0.026002 0.002115	0.099417
0.284289 -0.730000 0.026108 0.002117	0.099181
0.283031 -0.730000 0.026308 0.002126	0.098779
0.281903 -0.730000 0.026487 0.002131	0.098481
0.281249 -0.730000 0.026590 0.002130	0.098291
0.280610 -0.730000 0.026691 0.002135	0.098086