TITLE     = "Surface mesh and solution"
VARIABLES = "x"
"y"
"z"
"cfx"
"Cp"
ZONE T="Slice: Y=-0.001"
STRANDID=0, SOLUTIONTIME=0
Nodes=405, Elements=404, ZONETYPE=FELineSeg
DATAPACKING=POINT
DT=(DOUBLE DOUBLE DOUBLE DOUBLE DOUBLE )
0.5138667800	-0.0009999500	-0.0150565640	0.0008915769	0.2360653400
0.5213446000	-0.0009999500	-0.0165373310	0.0008749367	0.2414104000
0.5287907100	-0.0009999500	-0.0180200410	0.0008516063	0.2467435700
0.5361785900	-0.0009999500	-0.0194992590	0.0008271953	0.2520364500
0.5434724100	-0.0009999500	-0.0209675790	0.0008106464	0.2572918800
0.5506414800	-0.0009999500	-0.0224184820	0.0007934432	0.2624759100
0.5576724400	-0.0009999500	-0.0238488560	0.0007816951	0.2675852500
0.5645709000	-0.0009999500	-0.0252594630	0.0007708985	0.2726586200
0.5713553400	-0.0009999500	-0.0266536960	0.0007480149	0.2776346500
0.5780492400	-0.0009999500	-0.0280361230	0.0007245333	0.2826019200
0.5846750100	-0.0009999500	-0.0294111560	0.0007119403	0.2875891000
0.5912478000	-0.0009999500	-0.0307817810	0.0006989414	0.2925561100
0.5977743300	-0.0009999500	-0.0321493150	0.0006794692	0.2975334500
0.6042514400	-0.0009999500	-0.0335129720	0.0006599974	0.3025091300
0.6106615100	-0.0009999500	-0.0348689220	0.0006397447	0.3074838800
0.6169644600	-0.0009999500	-0.0362084660	0.0006180631	0.3124252600
0.6231004600	-0.0009999500	-0.0375185350	0.0005944195	0.3172906900
0.6289970300	-0.0009999500	-0.0387831000	0.0005687653	0.3220329300
0.6345897900	-0.0009999500	-0.0399876500	0.0005416661	0.3266019200
0.6398374400	-0.0009999500	-0.0411224590	0.0005139836	0.3309572900
0.6447323600	-0.0009999500	-0.0421850010	0.0004866762	0.3351516100
0.6496231000	-0.0009999500	-0.0432505530	0.0004606410	0.3393058800
0.6543443800	-0.0009999500	-0.0442829210	0.0004363505	0.3434283100
0.6588783300	-0.0009999500	-0.0452778190	0.0004138744	0.3474592900
0.6631871500	-0.0009999500	-0.0462264870	0.0003930792	0.3513557300
0.6672428800	-0.0009999500	-0.0471222880	0.0003739012	0.3550733600
0.6710397000	-0.0009999500	-0.0479634260	0.0003563615	0.3585936100
0.6745934500	-0.0009999500	-0.0487529450	0.0003403025	0.3619212800
0.6779308300	-0.0009999500	-0.0494963640	0.0003254274	0.3650771400
0.6810805200	-0.0009999500	-0.0501997400	0.0003114913	0.3680834200
0.6840687400	-0.0009999500	-0.0508686490	0.0002984909	0.3709625300
0.6869190900	-0.0009999500	-0.0515081550	0.0002864251	0.3737282500
0.6896542300	-0.0009999500	-0.0521231440	0.0002748600	0.3764175200
0.6922959100	-0.0009999500	-0.0527183750	0.0002616872	0.3790427700
0.6948622500	-0.0009999500	-0.0532978140	0.0002472165	0.3815870600
0.6973693400	-0.0009999500	-0.0538650120	0.0002350641	0.3840859500
0.6998299400	-0.0009999500	-0.0544227770	0.0002250889	0.3865983500
0.7022518500	-0.0009999500	-0.0549728420	0.0002138324	0.3890915500
0.7046393800	-0.0009999500	-0.0555161350	0.0002008225	0.3915458600
0.7069937600	-0.0009999500	-0.0560529050	0.0001879464	0.3939957600
0.7093149400	-0.0009999500	-0.0565830840	0.0001756180	0.3964306400
0.7116029300	-0.0009999500	-0.0571066510	0.0001633360	0.3988525300
0.7138583100	-0.0009999500	-0.0576237100	0.0001502620	0.4012730700
0.7160817400	-0.0009999500	-0.0581343510	0.0001372519	0.4036409000
0.7182725100	-0.0009999500	-0.0586383980	0.0001257176	0.4060002600
0.7204281100	-0.0009999500	-0.0591352280	0.0001146459	0.4083641200
0.7225432400	-0.0009999500	-0.0596235730	0.0001031448	0.4106727800
0.7246086600	-0.0009999500	-0.0601012480	0.0000914634	0.4129386200
0.7266091700	-0.0009999500	-0.0605647010	0.0000797791	0.4151755000
0.7285449500	-0.0009999500	-0.0610138550	0.0000689122	0.4173107400
0.7303956700	-0.0009999500	-0.0614439510	0.0000580842	0.4193124500
0.7321432200	-0.0009999500	-0.0618506710	0.0000474370	0.4213505700
0.7337727000	-0.0009999500	-0.0622304490	0.0000383132	0.4232559800
0.7352694900	-0.0009999500	-0.0625797580	0.0000288623	0.4249215700
0.7366251900	-0.0009999500	-0.0628965050	0.0000205461	0.4264949000
0.7378419600	-0.0009999500	-0.0631811100	0.0000102910	0.4279107200
0.7388737200	-0.0009999500	-0.0634226580	0.0000150500	0.4291713200
0.7393500200	-0.0009999500	-0.0635342670	0.0000079885	0.4297025200
0.7399196000	-0.0009999500	-0.0636677150	0.0000016637	0.4303376700
0.7407598500	-0.0009999500	-0.0638647530	-0.0000023225	0.4313130100
0.7415375100	-0.0009999500	-0.0640472170	-0.0000060716	0.4321476500
0.7421944700	-0.0009999500	-0.0642014670	-0.0000092041	0.4329370600
0.7427788400	-0.0009999500	-0.0643387290	-0.0000070238	0.4335907400
0.7433266600	-0.0009999500	-0.0644674820	-0.0000069161	0.4341558200
0.7438408100	-0.0009999500	-0.0645883830	-0.0000105606	0.4346343300
0.7438907600	-0.0009999500	-0.0646001250	-0.0000108412	0.4346909500
0.7443205700	-0.0009999500	-0.0647012290	-0.0000141458	0.4351606100
0.7445324100	-0.0009999500	-0.0647510740	-0.0000133124	0.4353778100
0.7449595900	-0.0009999500	-0.0648516340	-0.0000102492	0.4358706500
0.7455822800	-0.0009999500	-0.0649982840	-0.0000044742	0.4364236600
0.7456396200	-0.0009999500	-0.0650117840	-0.0000049374	0.4364744700
0.7458130700	-0.0009999500	-0.0650526430	0.0000031206	0.4366767100
0.7460951800	-0.0009999500	-0.0651191170	0.0000140290	0.4370003900
0.7464378500	-0.0009999500	-0.0651998590	0.0000619761	0.4373349800
0.7467177500	-0.0009999500	-0.0652658420	0.0001735382	0.4373690200
0.7469513400	-0.0009999500	-0.0653209090	0.0004001245	0.4358674300
0.7471460100	-0.0009999500	-0.0653668050	0.0006151492	0.4348217200
0.7469463300	-0.0009999500	-0.0653782040	0.0005188523	0.4357006300
0.7467067200	-0.0009999500	-0.0653918760	0.0002901824	0.4361990400
0.7464187100	-0.0009999500	-0.0654082970	0.0002209924	0.4360231800
0.7460444600	-0.0009999500	-0.0654296200	0.0002150705	0.4355696400
0.7457779600	-0.0009999500	-0.0654447820	0.0002234798	0.4351836400
0.7455345400	-0.0009999500	-0.0654586400	0.0002300765	0.4348205900
0.7454809500	-0.0009999500	-0.0654616880	0.0002319782	0.4347435200
0.7448865800	-0.0009999500	-0.0654954460	0.0002332922	0.4337868400
0.7446649700	-0.0009999500	-0.0655080150	0.0002337747	0.4334025700
0.7442039300	-0.0009999500	-0.0655341300	0.0002401340	0.4326292300
0.7438017700	-0.0009999500	-0.0655568760	0.0002480492	0.4320609000
0.7436482300	-0.0009999500	-0.0655655490	0.0002504637	0.4318003100
0.7433102700	-0.0009999500	-0.0655846300	0.0002423198	0.4311927600
0.7427687600	-0.0009999500	-0.0656151550	0.0002500215	0.4302853600
0.7421698600	-0.0009999500	-0.0656488610	0.0002529910	0.4292587600
0.7414947700	-0.0009999500	-0.0656867620	0.0002597946	0.4280724800
0.7407319500	-0.0009999500	-0.0657294910	0.0002684387	0.4267860100
0.7398662000	-0.0009999500	-0.0657778750	0.0002900590	0.4254311000
0.7389146100	-0.0009999500	-0.0658308940	0.0003043296	0.4238929200
0.7384635800	-0.0009999500	-0.0658559350	0.0003133407	0.4231956000
0.7377156000	-0.0009999500	-0.0658974720	0.0003288956	0.4220522300
0.7365900300	-0.0009999500	-0.0659597440	0.0003203533	0.4201758500
0.7352385500	-0.0009999500	-0.0660342050	0.0003365785	0.4181878900
0.7337603000	-0.0009999500	-0.0661152750	0.0003472242	0.4159336100
0.7321630700	-0.0009999500	-0.0662024240	0.0003624073	0.4136697600
0.7304588600	-0.0009999500	-0.0662949010	0.0003801430	0.4112978600
0.7286621300	-0.0009999500	-0.0663918480	0.0003951196	0.4088348400
0.7267869100	-0.0009999500	-0.0664924160	0.0004092835	0.4063829500
0.7248442200	-0.0009999500	-0.0665959490	0.0004271716	0.4039159700
0.7228341100	-0.0009999500	-0.0667023810	0.0004440915	0.4014160300
0.7207637400	-0.0009999500	-0.0668112640	0.0004567928	0.3988983300
0.7186388400	-0.0009999500	-0.0669222330	0.0004682169	0.3963774100
0.7164642200	-0.0009999500	-0.0670349820	0.0004837015	0.3939047200
0.7142432900	-0.0009999500	-0.0671492960	0.0005021359	0.3914308000
0.7119781400	-0.0009999500	-0.0672650040	0.0005178242	0.3889451300
0.7096702500	-0.0009999500	-0.0673819930	0.0005310374	0.3864863800
0.7073212300	-0.0009999500	-0.0675001370	0.0005446249	0.3840390700
0.7049337600	-0.0009999500	-0.0676192420	0.0005583844	0.3816323000
0.7025105400	-0.0009999500	-0.0677391510	0.0005713330	0.3792376200
0.7000528600	-0.0009999500	-0.0678597540	0.0005806929	0.3768421400
0.6975610300	-0.0009999500	-0.0679809900	0.0005881276	0.3744852500
0.6950340900	-0.0009999500	-0.0681028890	0.0006009402	0.3721815900
0.6924691200	-0.0009999500	-0.0682255250	0.0006177034	0.3698834500
0.6898594500	-0.0009999500	-0.0683491830	0.0006306457	0.3675625600
0.6871926200	-0.0009999500	-0.0684743900	0.0006401284	0.3652394100
0.6844478800	-0.0009999500	-0.0686020400	0.0006500982	0.3629039200
0.6815945500	-0.0009999500	-0.0687334310	0.0006609967	0.3605410200
0.6785980500	-0.0009999500	-0.0688699930	0.0006726772	0.3581035700
0.6754218900	-0.0009999500	-0.0690131630	0.0006852442	0.3555744000
0.6720267500	-0.0009999500	-0.0691644030	0.0006989922	0.3529294400
0.6683671500	-0.0009999500	-0.0693253650	0.0007145371	0.3501415300
0.6643803700	-0.0009999500	-0.0694982930	0.0007326944	0.3471762200
0.6599674200	-0.0009999500	-0.0696867780	0.0007545928	0.3439868100
0.6549822100	-0.0009999500	-0.0698960420	0.0007818252	0.3405135300
0.6492052100	-0.0009999500	-0.0701336940	0.0008152103	0.3366161900
0.6422627600	-0.0009999500	-0.0704124790	0.0008534184	0.3323462000
0.6352654100	-0.0009999500	-0.0706860200	0.0008937922	0.3280809500
0.6284862200	-0.0009999500	-0.0709439520	0.0009334226	0.3240539700
0.6218742700	-0.0009999500	-0.0711888890	0.0009698559	0.3202445200
0.6153745700	-0.0009999500	-0.0714233220	0.0010018215	0.3165990400
0.6089287400	-0.0009999500	-0.0716496410	0.0010292715	0.3130817700
0.6024917400	-0.0009999500	-0.0718695740	0.0010528920	0.3096551600
0.5960293400	-0.0009999500	-0.0720843000	0.0010737483	0.3062942000
0.5895202800	-0.0009999500	-0.0722944590	0.0010931327	0.3029902900
0.5829501700	-0.0009999500	-0.0725004080	0.0011123926	0.2997347700
0.5763068200	-0.0009999500	-0.0727023710	0.0011217951	0.2964848900
0.5695772800	-0.0009999500	-0.0729005410	0.0011319958	0.2933003600
0.5627446800	-0.0009999500	-0.0730951730	0.0011590843	0.2901377700
0.5557922700	-0.0009999500	-0.0732864510	0.0011830147	0.2869615600
0.5487078400	-0.0009999500	-0.0734743700	0.0011987856	0.2838265000
0.5414887700	-0.0009999500	-0.0736586000	0.0012057612	0.2806606300
0.5341487500	-0.0009999500	-0.0738384430	0.0012145651	0.2775569300
0.5267151600	-0.0009999500	-0.0740129050	0.0012421517	0.2744809100
0.5192170100	-0.0009999500	-0.0741810580	0.0012675933	0.2713903800
0.5116720800	-0.0009999500	-0.0743423400	0.0012841463	0.2683767400
0.5040807100	-0.0009999500	-0.0744965970	0.0013013945	0.2654084900
0.4964275700	-0.0009999500	-0.0746439470	0.0013209671	0.2624909000
0.4886894500	-0.0009999500	-0.0747845920	0.0013290317	0.2595814500
0.4808457500	-0.0009999500	-0.0749185680	0.0013275533	0.2567191700
0.4728908200	-0.0009999500	-0.0750455780	0.0013466939	0.2539419500
0.4648405900	-0.0009999500	-0.0751649890	0.0013813941	0.2511101700
0.4567296200	-0.0009999500	-0.0752759580	0.0014061697	0.2482515000
0.4486037800	-0.0009999500	-0.0753776730	0.0014238572	0.2454955700
0.4405099700	-0.0009999500	-0.0754695090	0.0014300897	0.2427619200
0.4324779500	-0.0009999500	-0.0755512040	0.0014380542	0.2401620900
0.4245114900	-0.0009999500	-0.0756228790	0.0014544216	0.2376001200
0.4165967400	-0.0009999500	-0.0756847630	0.0014687914	0.2350606200
0.4087123000	-0.0009999500	-0.0757370740	0.0014965581	0.2326322600
0.4008385500	-0.0009999500	-0.0757799070	0.0015217553	0.2302137200
0.3929646300	-0.0009999500	-0.0758132340	0.0015364271	0.2278900700
0.3850894600	-0.0009999500	-0.0758369270	0.0015522378	0.2256267400
0.3772146100	-0.0009999500	-0.0758508590	0.0015684270	0.2234173900
0.3693341900	-0.0009999500	-0.0758548900	0.0015847870	0.2212620700
0.3614305900	-0.0009999500	-0.0758488180	0.0016009835	0.2191646100
0.3534763800	-0.0009999500	-0.0758323370	0.0016176701	0.2171082800
0.3454417600	-0.0009999500	-0.0758049410	0.0016224146	0.2150290500
0.3373050100	-0.0009999500	-0.0757659970	0.0016265419	0.2130440800
0.3290645500	-0.0009999500	-0.0757148710	0.0016550521	0.2111347600
0.3207419500	-0.0009999500	-0.0756510650	0.0016814009	0.2091831100
0.3123768000	-0.0009999500	-0.0755743610	0.0016955159	0.2073181000
0.3040194500	-0.0009999500	-0.0754848870	0.0016976340	0.2055002500
0.2957090400	-0.0009999500	-0.0753829260	0.0017011722	0.2038231500
0.2874583000	-0.0009999500	-0.0752686040	0.0017299660	0.2022352100
0.2792537800	-0.0009999500	-0.0751416830	0.0017551198	0.2006428400
0.2710678000	-0.0009999500	-0.0750016050	0.0017683567	0.1991723300
0.2628790700	-0.0009999500	-0.0748477500	0.0017841672	0.1978094300
0.2546856100	-0.0009999500	-0.0746797170	0.0017849923	0.1964235900
0.2465146200	-0.0009999500	-0.0744977740	0.0017855992	0.1951745000
0.2384106200	-0.0009999500	-0.0743028070	0.0018153011	0.1940952500
0.2304104000	-0.0009999500	-0.0740958230	0.0018271381	0.1928944100
0.2225281700	-0.0009999500	-0.0738774170	0.0018253193	0.1919741600
0.2147432400	-0.0009999500	-0.0736472610	0.0018346528	0.1910514800
0.2070556000	-0.0009999500	-0.0734055410	0.0018304530	0.1901091600
0.1993801400	-0.0009999500	-0.0731495470	0.0018416713	0.1894867300
0.1916299300	-0.0009999500	-0.0728757900	0.0018758952	0.1887908700
0.1837428800	-0.0009999500	-0.0725810530	0.0018962949	0.1881267700
0.1756954000	-0.0009999500	-0.0722630840	0.0019044183	0.1875838000
0.1674965300	-0.0009999500	-0.0719207450	0.0019153043	0.1871610900
0.1591712200	-0.0009999500	-0.0715535660	0.0019280128	0.1868145200
0.1507507300	-0.0009999500	-0.0711615530	0.0019269487	0.1864682900
0.1422631000	-0.0009999500	-0.0707447900	0.0019295850	0.1864937200
0.1337314700	-0.0009999500	-0.0703033060	0.0019625839	0.1866271300
0.1251854700	-0.0009999500	-0.0698376670	0.0019765229	0.1867199200
0.1166624900	-0.0009999500	-0.0693492000	0.0019642301	0.1870227200
0.1082074700	-0.0009999500	-0.0688401240	0.0019832096	0.1874865400
0.0998676490	-0.0009999500	-0.0683132630	0.0020261352	0.1880335400
0.0916786420	-0.0009999500	-0.0677712490	0.0020533302	0.1886573600
0.0836630390	-0.0009999500	-0.0672162700	0.0020685690	0.1894325800
0.0758288650	-0.0009999500	-0.0666497350	0.0020862977	0.1903004600
0.0681683270	-0.0009999500	-0.0660719280	0.0021058469	0.1913147700
0.0606634210	-0.0009999500	-0.0654822740	0.0021269047	0.1924526700
0.0532937570	-0.0009999500	-0.0648798350	0.0021300509	0.1936192400
0.0460443680	-0.0009999500	-0.0642638580	0.0021326467	0.1949549600
0.0389131460	-0.0009999500	-0.0636345600	0.0021691764	0.1964664200
0.0319123790	-0.0009999500	-0.0629935260	0.0022034252	0.1979127400
0.0250616280	-0.0009999500	-0.0623432360	0.0022219485	0.1994924800
0.0183798130	-0.0009999500	-0.0616863780	0.0022440018	0.2012881600
0.0118826610	-0.0009999500	-0.0610255560	0.0022472487	0.2030655400
0.0055768774	-0.0009999500	-0.0603626930	0.0022508198	0.2050496300
-0.0005443011	-0.0009999500	-0.0596983660	0.0022916734	0.2070760400
-0.0064988718	-0.0009999500	-0.0590318030	0.0023103394	0.2089311900
-0.0123192000	-0.0009999500	-0.0583602790	0.0023104142	0.2112183600
-0.0180419440	-0.0009999500	-0.0576801370	0.0023493508	0.2135715900
-0.0236947200	-0.0009999500	-0.0569883920	0.0023652964	0.2156773800
-0.0292967090	-0.0009999500	-0.0562827550	0.0023682890	0.2181733700
-0.0348538830	-0.0009999500	-0.0555623700	0.0024123402	0.2209513500
-0.0403589790	-0.0009999500	-0.0548280250	0.0024489090	0.2236001500
-0.0457982230	-0.0009999500	-0.0540815670	0.0024683510	0.2263552200
-0.0511575150	-0.0009999500	-0.0533251240	0.0024910739	0.2293494000
-0.0564287340	-0.0009999500	-0.0525601990	0.0025146990	0.2324780200
-0.0616159480	-0.0009999500	-0.0517865080	0.0025388033	0.2357614900
-0.0667349770	-0.0009999500	-0.0510018880	0.0025373057	0.2389286300
-0.0718055670	-0.0009999500	-0.0502033200	0.0025396751	0.2424336200
-0.0768452360	-0.0009999500	-0.0493878570	0.0025831056	0.2464568800
-0.0818668530	-0.0009999500	-0.0485530050	0.0026176330	0.2501568800
-0.0868795890	-0.0009999500	-0.0476965460	0.0026139656	0.2538401200
-0.0918912370	-0.0009999500	-0.0468163160	0.0026153661	0.2584050900
-0.0969100590	-0.0009999500	-0.0459099000	0.0026527892	0.2630490400
-0.1019455100	-0.0009999500	-0.0449744800	0.0026888684	0.2676436900
-0.1070088300	-0.0009999500	-0.0440065260	0.0027075977	0.2728293200
-0.1121149400	-0.0009999500	-0.0430012940	0.0027239916	0.2783660600
-0.1172852800	-0.0009999500	-0.0419522640	0.0027401619	0.2843643400
-0.1225502900	-0.0009999500	-0.0408503340	0.0027556983	0.2908895900
-0.1279503600	-0.0009999500	-0.0396830700	0.0027436817	0.2978723000
-0.1335367600	-0.0009999500	-0.0384336450	0.0027351961	0.3059484400
-0.1393646400	-0.0009999500	-0.0370820050	0.0027721194	0.3151710600
-0.1455147600	-0.0009999500	-0.0355989000	0.0028002171	0.3252232100
-0.1517265700	-0.0009999500	-0.0340372770	0.0028001988	0.3363263000
-0.1574147200	-0.0009999500	-0.0325465350	0.0027933719	0.3476707300
-0.1626929300	-0.0009999500	-0.0311073200	0.0027908265	0.3591800900
-0.1676515000	-0.0009999500	-0.0297024190	0.0027900898	0.3711950500
-0.1723669500	-0.0009999500	-0.0283147510	0.0027532005	0.3834619200
-0.1769004000	-0.0009999500	-0.0269293490	0.0027157782	0.3965143000
-0.1812997200	-0.0009999500	-0.0255331940	0.0027246021	0.4103002000
-0.1856008200	-0.0009999500	-0.0241144060	0.0027219610	0.4249531900
-0.1898269200	-0.0009999500	-0.0226634290	0.0026877144	0.4407840400
-0.1939939600	-0.0009999500	-0.0211723800	0.0026513896	0.4578890800
-0.1981106700	-0.0009999500	-0.0196347780	0.0026118544	0.4767164000
-0.2021741300	-0.0009999500	-0.0180463010	0.0025310277	0.4972163700
-0.2061695200	-0.0009999500	-0.0164074380	0.0024429426	0.5195992600
-0.2100702100	-0.0009999500	-0.0147250320	0.0023945762	0.5438633600
-0.2138443400	-0.0009999500	-0.0130080130	0.0023300244	0.5702616600
-0.2174613300	-0.0009999500	-0.0112667230	0.0022350426	0.5988122800
-0.2208973600	-0.0009999500	-0.0095126294	0.0021422088	0.6293625800
-0.2241374700	-0.0009999500	-0.0077531706	0.0020272533	0.6620617500
-0.2271789800	-0.0009999500	-0.0059889141	0.0019104906	0.6967651200
-0.2300332300	-0.0009999500	-0.0042149071	0.0018355765	0.7332062100
-0.2327084500	-0.0009999500	-0.0024254001	0.0017555338	0.7715123900
-0.2352057400	-0.0009999500	-0.0006138800	0.0016185101	0.8107596600
-0.2375221000	-0.0009999500	0.0012201592	0.0014100313	0.8500717300
-0.2396056800	-0.0009999500	0.0030328815	0.0011884019	0.8882363400
-0.2416306000	-0.0009999500	0.0050000739	0.0009547063	0.9254812000
-0.2432895700	-0.0009999500	0.0068226838	0.0006790555	0.9573350500
-0.2447747700	-0.0009999500	0.0086880270	0.0003574227	0.9796059700
-0.2460268000	-0.0009999500	0.0105304890	0.0000224277	0.9887890800
-0.2470641700	-0.0009999500	0.0123720290	-0.0003447835	0.9816246000
-0.2478788300	-0.0009999500	0.0141851600	-0.0005960108	0.9549189800
-0.2484661900	-0.0009999500	0.0159177580	-0.0005853286	0.9082412100
-0.2488259200	-0.0009999500	0.0174389200	-0.0004874181	0.8459371300
-0.2490280700	-0.0009999500	0.0188524310	-0.0004114310	0.7798714000
-0.2491065700	-0.0009999500	0.0203516240	-0.0002034637	0.6997551900
-0.2490486800	-0.0009999500	0.0217889360	0.0003546430	0.5930548900
-0.2488582000	-0.0009999500	0.0232026630	0.0011681713	0.4740505200
-0.2485141200	-0.0009999500	0.0246908530	0.0019130368	0.3669284900
-0.2480721900	-0.0009999500	0.0260359910	0.0023889405	0.2628369300
-0.2474783700	-0.0009999500	0.0274199230	0.0030652071	0.1565741600
-0.2466297000	-0.0009999500	0.0289862830	0.0040219472	0.0427652710
-0.2455425100	-0.0009999500	0.0306083040	0.0049535755	-0.0604696050
-0.2442345200	-0.0009999500	0.0322215150	0.0056342000	-0.1504163700
-0.2427340000	-0.0009999500	0.0337863270	0.0059646216	-0.2233621800
-0.2410058700	-0.0009999500	0.0353393850	0.0061018030	-0.2785644200
-0.2391185300	-0.0009999500	0.0368229640	0.0061392996	-0.3303091800
-0.2368168500	-0.0009999500	0.0384118220	0.0062473926	-0.3649751200
-0.2344425200	-0.0009999500	0.0398618540	0.0061977803	-0.3870087600
-0.2318887600	-0.0009999500	0.0412610580	0.0063066956	-0.4062112300
-0.2291631800	-0.0009999500	0.0426063500	0.0062032118	-0.4176215200
-0.2262695700	-0.0009999500	0.0438997630	0.0060196769	-0.4260028000
-0.2232056400	-0.0009999500	0.0451476980	0.0059985161	-0.4312354600
-0.2199628700	-0.0009999500	0.0463531870	0.0059922102	-0.4332638400
-0.2165327100	-0.0009999500	0.0475188790	0.0058975987	-0.4337075900
-0.2129181200	-0.0009999500	0.0486453730	0.0057972005	-0.4318529700
-0.2091376500	-0.0009999500	0.0497267320	0.0056987122	-0.4287291500
-0.2052149800	-0.0009999500	0.0507568230	0.0055379558	-0.4247095900
-0.2011736500	-0.0009999500	0.0517331320	0.0053665086	-0.4202439500
-0.1970299600	-0.0009999500	0.0526552650	0.0052992157	-0.4152974200
-0.1927880300	-0.0009999500	0.0535246060	0.0052381634	-0.4092644200
-0.1884418600	-0.0009999500	0.0543451680	0.0051187705	-0.4036513000
-0.1839850200	-0.0009999500	0.0551206730	0.0050087760	-0.3974326300
-0.1794187000	-0.0009999500	0.0558517240	0.0049124617	-0.3912101400
-0.1747530400	-0.0009999500	0.0565378180	0.0047759330	-0.3851517700
-0.1699976500	-0.0009999500	0.0571794730	0.0046364321	-0.3791552200
-0.1651469500	-0.0009999500	0.0577787610	0.0045828624	-0.3730234200
-0.1601671900	-0.0009999500	0.0583399270	0.0045310508	-0.3664150500
-0.1549900800	-0.0009999500	0.0588695150	0.0044406874	-0.3600098800
-0.1495157200	-0.0009999500	0.0593743850	0.0043308414	-0.3536539400
-0.1436138300	-0.0009999500	0.0598593280	0.0042134093	-0.3462290500
-0.1371261200	-0.0009999500	0.0603261960	0.0041492074	-0.3383406400
-0.1306419400	-0.0009999500	0.0607286730	0.0040879308	-0.3313660000
-0.1246485300	-0.0009999500	0.0610473300	0.0040057877	-0.3247443100
-0.1190091800	-0.0009999500	0.0613029860	0.0039395256	-0.3186278900
-0.1136327500	-0.0009999500	0.0615090500	0.0038533630	-0.3127100800
-0.1084415200	-0.0009999500	0.0616749150	0.0037637722	-0.3075271200
-0.1033697300	-0.0009999500	0.0618068460	0.0037431914	-0.3022462700
-0.0983614100	-0.0009999500	0.0619090830	0.0037310415	-0.2967855000
-0.0933688430	-0.0009999500	0.0619844090	0.0036521394	-0.2918067000
-0.0883518760	-0.0009999500	0.0620344650	0.0035640349	-0.2868472000
-0.0832793270	-0.0009999500	0.0620598900	0.0035424051	-0.2817300600
-0.0781319440	-0.0009999500	0.0620606690	0.0035328338	-0.2764012200
-0.0729046990	-0.0009999500	0.0620365810	0.0034898087	-0.2710788000
-0.0676052640	-0.0009999500	0.0619875120	0.0034198707	-0.2656495600
-0.0622484090	-0.0009999500	0.0619136060	0.0033401659	-0.2604212500
-0.0568481760	-0.0009999500	0.0618151390	0.0033205662	-0.2551032300
-0.0514096580	-0.0009999500	0.0616924350	0.0033072389	-0.2496116000
-0.0459222090	-0.0009999500	0.0615454730	0.0032589884	-0.2442277800
-0.0403647610	-0.0009999500	0.0613737400	0.0032117788	-0.2387905700
-0.0347194560	-0.0009999500	0.0611764380	0.0031654710	-0.2332738300
-0.0289793410	-0.0009999500	0.0609528940	0.0031195091	-0.2276827500
-0.0231539720	-0.0009999500	0.0607031140	0.0030738065	-0.2220269000
-0.0172656230	-0.0009999500	0.0604279150	0.0030300321	-0.2162861700
-0.0113368320	-0.0009999500	0.0601284800	0.0029861189	-0.2105324000
-0.0053852657	-0.0009999500	0.0598059860	0.0029420799	-0.2047950900
0.0005828097	-0.0009999500	0.0594611690	0.0028976060	-0.1990362700
0.0065768580	-0.0009999500	0.0590938780	0.0028534847	-0.1932321900
0.0126244900	-0.0009999500	0.0587026480	0.0028119208	-0.1874135100
0.0187638140	-0.0009999500	0.0582848530	0.0027728593	-0.1814563600
0.0250394940	-0.0009999500	0.0578368600	0.0027158280	-0.1753833700
0.0314950050	-0.0009999500	0.0573545840	0.0026435870	-0.1691797200
0.0381594190	-0.0009999500	0.0568345450	0.0025967676	-0.1627281900
0.0450435910	-0.0009999500	0.0562744330	0.0025713112	-0.1561507900
0.0521351580	-0.0009999500	0.0556737590	0.0025478258	-0.1493208300
0.0594029720	-0.0009999500	0.0550339330	0.0025112465	-0.1423585100
0.0668035520	-0.0009999500	0.0543579940	0.0024630882	-0.1353266200
0.0742927640	-0.0009999500	0.0536496340	0.0024182774	-0.1281996100
0.0818375570	-0.0009999500	0.0529119820	0.0023579336	-0.1209953900
0.0894232690	-0.0009999500	0.0521467100	0.0022932378	-0.1138342100
0.0970548610	-0.0009999500	0.0513536300	0.0022684347	-0.1065938300
0.1047507200	-0.0009999500	0.0505310260	0.0022317928	-0.0992363910
0.1125318200	-0.0009999500	0.0496766270	0.0021705485	-0.0920217930
0.1204122300	-0.0009999500	0.0487887450	0.0021444910	-0.0846244840
0.1283959300	-0.0009999500	0.0478667320	0.0021200216	-0.0771065280
0.1364791100	-0.0009999500	0.0469108450	0.0020798345	-0.0696055740
0.1446531100	-0.0009999500	0.0459219370	0.0020269675	-0.0619394440
0.1529063100	-0.0009999500	0.0449013670	0.0019727781	-0.0542888860
0.1612245600	-0.0009999500	0.0438509660	0.0019503895	-0.0466144900
0.1695874800	-0.0009999500	0.0427734930	0.0019283827	-0.0389050800
0.1779670400	-0.0009999500	0.0416729150	0.0018905763	-0.0312886240
0.1863363400	-0.0009999500	0.0405533280	0.0018555329	-0.0236739030
0.1946768900	-0.0009999500	0.0394179190	0.0018216939	-0.0161247010
0.2029816400	-0.0009999500	0.0382683910	0.0017885105	-0.0086703170
0.2112532400	-0.0009999500	0.0371050980	0.0017568394	-0.0012748125
0.2194973700	-0.0009999500	0.0359279360	0.0017268110	0.0060417615
0.2277164500	-0.0009999500	0.0347371810	0.0016978795	0.0132557450
0.2359064800	-0.0009999500	0.0335340020	0.0016703833	0.0203929170
0.2440675500	-0.0009999500	0.0323189610	0.0016323355	0.0274941180
0.2521899000	-0.0009999500	0.0310941100	0.0015940088	0.0344530940
0.2602674700	-0.0009999500	0.0298609710	0.0015812220	0.0413493770
0.2683017800	-0.0009999500	0.0286198840	0.0015709148	0.0482411610
0.2763012600	-0.0009999500	0.0273700930	0.0015377014	0.0550380650
0.2842785400	-0.0009999500	0.0261100880	0.0015029334	0.0617431510
0.2922448200	-0.0009999500	0.0248384810	0.0014926708	0.0684067090
0.3002064500	-0.0009999500	0.0235545670	0.0014719579	0.0750485880
0.3081671300	-0.0009999500	0.0222580360	0.0014349300	0.0815777930
0.3161326600	-0.0009999500	0.0209481980	0.0014212012	0.0880654380
0.3241167700	-0.0009999500	0.0196229830	0.0014091678	0.0945426520
0.3321402100	-0.0009999500	0.0182790440	0.0013755151	0.1009875500
0.3402227800	-0.0009999500	0.0169130730	0.0013404647	0.1074111900
0.3483744600	-0.0009999500	0.0155233280	0.0013266725	0.1138363900
0.3565852000	-0.0009999500	0.0141114390	0.0013049428	0.1202786600
0.3648264700	-0.0009999500	0.0126823350	0.0012695956	0.1266751400
0.3730633000	-0.0009999500	0.0112422090	0.0012457992	0.1330389200
0.3812642700	-0.0009999500	0.0097968411	0.0012214721	0.1393103300
0.3894124300	-0.0009999500	0.0083495667	0.0012050229	0.1454818200
0.3975068600	-0.0009999500	0.0069009322	0.0011899211	0.1515893500
0.4055533700	-0.0009999500	0.0054502450	0.0011656344	0.1576075100
0.4135571400	-0.0009999500	0.0039968849	0.0011427461	0.1635580500
0.4215185300	-0.0009999500	0.0025410696	0.0011204605	0.1694394500
0.4294347800	-0.0009999500	0.0010835761	0.0010990563	0.1752708100
0.4373039000	-0.0009999500	-0.0003749419	0.0010786005	0.1810376900
0.4451272800	-0.0009999500	-0.0018344951	0.0010596661	0.1867357200
0.4529101600	-0.0009999500	-0.0032958230	0.0010340563	0.1923854200
0.4606580400	-0.0009999500	-0.0047597541	0.0010071089	0.1979932600
0.4683730300	-0.0009999500	-0.0062264968	0.0009953099	0.2035540000
0.4760527300	-0.0009999500	-0.0076954309	0.0009835847	0.2090719000
0.4836924400	-0.0009999500	-0.0091654882	0.0009638643	0.2145318100
0.4912891700	-0.0009999500	-0.0106359040	0.0009453273	0.2199486800
0.4988451000	-0.0009999500	-0.0121069290	0.0009269146	0.2253402000
0.5063679200	-0.0009999500	-0.0135799260	0.0009088541	0.2307065100
0.5138667800	-0.0009999500	-0.0150565640	0.0008915769	0.2360653400
1 2 
2 3 
3 4 
4 5 
5 6 
6 7 
7 8 
8 9 
9 10 
10 11 
11 12 
12 13 
13 14 
14 15 
15 16 
16 17 
17 18 
18 19 
19 20 
20 21 
21 22 
22 23 
23 24 
24 25 
25 26 
26 27 
27 28 
28 29 
29 30 
30 31 
31 32 
32 33 
33 34 
34 35 
35 36 
36 37 
37 38 
38 39 
39 40 
40 41 
41 42 
42 43 
43 44 
44 45 
45 46 
46 47 
47 48 
48 49 
49 50 
50 51 
51 52 
52 53 
53 54 
54 55 
55 56 
56 57 
57 58 
58 59 
59 60 
60 61 
61 62 
62 63 
63 64 
64 65 
65 66 
66 67 
67 68 
68 69 
69 70 
70 71 
71 72 
72 73 
73 74 
74 75 
75 76 
76 77 
77 78 
78 79 
79 80 
80 81 
81 82 
82 83 
83 84 
84 85 
85 86 
86 87 
87 88 
88 89 
89 90 
90 91 
91 92 
92 93 
93 94 
94 95 
95 96 
96 97 
97 98 
98 99 
99 100 
100 101 
101 102 
102 103 
103 104 
104 105 
105 106 
106 107 
107 108 
108 109 
109 110 
110 111 
111 112 
112 113 
113 114 
114 115 
115 116 
116 117 
117 118 
118 119 
119 120 
120 121 
121 122 
122 123 
123 124 
124 125 
125 126 
126 127 
127 128 
128 129 
129 130 
130 131 
131 132 
132 133 
133 134 
134 135 
135 136 
136 137 
137 138 
138 139 
139 140 
140 141 
141 142 
142 143 
143 144 
144 145 
145 146 
146 147 
147 148 
148 149 
149 150 
150 151 
151 152 
152 153 
153 154 
154 155 
155 156 
156 157 
157 158 
158 159 
159 160 
160 161 
161 162 
162 163 
163 164 
164 165 
165 166 
166 167 
167 168 
168 169 
169 170 
170 171 
171 172 
172 173 
173 174 
174 175 
175 176 
176 177 
177 178 
178 179 
179 180 
180 181 
181 182 
182 183 
183 184 
184 185 
185 186 
186 187 
187 188 
188 189 
189 190 
190 191 
191 192 
192 193 
193 194 
194 195 
195 196 
196 197 
197 198 
198 199 
199 200 
200 201 
201 202 
202 203 
203 204 
204 205 
205 206 
206 207 
207 208 
208 209 
209 210 
210 211 
211 212 
212 213 
213 214 
214 215 
215 216 
216 217 
217 218 
218 219 
219 220 
220 221 
221 222 
222 223 
223 224 
224 225 
225 226 
226 227 
227 228 
228 229 
229 230 
230 231 
231 232 
232 233 
233 234 
234 235 
235 236 
236 237 
237 238 
238 239 
239 240 
240 241 
241 242 
242 243 
243 244 
244 245 
245 246 
246 247 
247 248 
248 249 
249 250 
250 251 
251 252 
252 253 
253 254 
254 255 
255 256 
256 257 
257 258 
258 259 
259 260 
260 261 
261 262 
262 263 
263 264 
264 265 
265 266 
266 267 
267 268 
268 269 
269 270 
270 271 
271 272 
272 273 
273 274 
274 275 
275 276 
276 277 
277 278 
278 279 
279 280 
280 281 
281 282 
282 283 
283 284 
284 285 
285 286 
286 287 
287 288 
288 289 
289 290 
290 291 
291 292 
292 293 
293 294 
294 295 
295 296 
296 297 
297 298 
298 299 
299 300 
300 301 
301 302 
302 303 
303 304 
304 305 
305 306 
306 307 