TITLE     = "Surface mesh and solution"
VARIABLES = "x"
"y"
"z"
"cfx"
"Cp"
ZONE T="Slice: Y=-0.001"
STRANDID=0, SOLUTIONTIME=0
Nodes=1558, Elements=1557, ZONETYPE=FELineSeg
DATAPACKING=POINT
DT=(DOUBLE DOUBLE DOUBLE DOUBLE DOUBLE )
0.4928259000	-0.0009999500	-0.0109343900	0.0008274570	0.2214775200
0.4947145600	-0.0009999500	-0.0113017210	0.0008211426	0.2228282700
0.4966017600	-0.0009999500	-0.0116692990	0.0008137555	0.2241661300
0.4984867600	-0.0009999500	-0.0120369720	0.0008098437	0.2255083600
0.5003687100	-0.0009999500	-0.0124045750	0.0008062210	0.2269190100
0.5022484700	-0.0009999500	-0.0127722770	0.0007997746	0.2282302400
0.5041270900	-0.0009999500	-0.0131402810	0.0007949138	0.2295457300
0.5060043300	-0.0009999500	-0.0135085420	0.0007923144	0.2309467900
0.5078799100	-0.0009999500	-0.0138769820	0.0007883537	0.2322904500
0.5097541800	-0.0009999500	-0.0142456960	0.0007829608	0.2336302800
0.5116277300	-0.0009999500	-0.0146147920	0.0007774615	0.2349894200
0.5135005700	-0.0009999500	-0.0149842560	0.0007720383	0.2362973800
0.5153724000	-0.0009999500	-0.0153540430	0.0007694580	0.2376815100
0.5172435000	-0.0009999500	-0.0157242030	0.0007674318	0.2390576200
0.5191140200	-0.0009999500	-0.0160947610	0.0007627754	0.2403575200
0.5209832800	-0.0009999500	-0.0164655910	0.0007586313	0.2417484200
0.5228508100	-0.0009999500	-0.0168366000	0.0007534087	0.2431211300
0.5247172100	-0.0009999500	-0.0172078910	0.0007453917	0.2444333100
0.5265824200	-0.0009999500	-0.0175794590	0.0007388543	0.2457428700
0.5284445300	-0.0009999500	-0.0179509240	0.0007363544	0.2471249600
0.5303022300	-0.0009999500	-0.0183220240	0.0007341769	0.2484835500
0.5321568300	-0.0009999500	-0.0186930150	0.0007298078	0.2498130600
0.5340088000	-0.0009999500	-0.0190639870	0.0007247292	0.2511640800
0.5358548800	-0.0009999500	-0.0194342830	0.0007194262	0.2524943400
0.5376927300	-0.0009999500	-0.0198034220	0.0007130777	0.2538489700
0.5395247300	-0.0009999500	-0.0201718960	0.0007064455	0.2551643000
0.5413525100	-0.0009999500	-0.0205400180	0.0007021282	0.2564863300
0.5431717600	-0.0009999500	-0.0209069010	0.0006989170	0.2578267500
0.5449788600	-0.0009999500	-0.0212718230	0.0006952844	0.2591498800
0.5467776700	-0.0009999500	-0.0216355620	0.0006914662	0.2604709300
0.5485715900	-0.0009999500	-0.0219987850	0.0006861124	0.2617976100
0.5503559700	-0.0009999500	-0.0223605480	0.0006799199	0.2630722500
0.5521270000	-0.0009999500	-0.0227200780	0.0006759901	0.2643490700
0.5538885600	-0.0009999500	-0.0230781470	0.0006739990	0.2656854700
0.5556440900	-0.0009999500	-0.0234354590	0.0006707669	0.2669637800
0.5573904500	-0.0009999500	-0.0237913540	0.0006647992	0.2682645300
0.5591244700	-0.0009999500	-0.0241451820	0.0006580305	0.2695164400
0.5608497300	-0.0009999500	-0.0244976730	0.0006534495	0.2707635800
0.5625701500	-0.0009999500	-0.0248496090	0.0006505254	0.2720792600
0.5642830700	-0.0009999500	-0.0252004640	0.0006462504	0.2733545600
0.5659859800	-0.0009999500	-0.0255496870	0.0006404736	0.2745994300
0.5676816100	-0.0009999500	-0.0258978640	0.0006365084	0.2758545000
0.5693732500	-0.0009999500	-0.0262456480	0.0006339331	0.2771274700
0.5710592300	-0.0009999500	-0.0265926960	0.0006307423	0.2784103500
0.5727375700	-0.0009999500	-0.0269386000	0.0006257760	0.2796760800
0.5744105000	-0.0009999500	-0.0272838040	0.0006190800	0.2808640600
0.5760803200	-0.0009999500	-0.0276287980	0.0006141471	0.2821507200
0.5777460300	-0.0009999500	-0.0279733560	0.0006104248	0.2833859900
0.5794061400	-0.0009999500	-0.0283171800	0.0006069793	0.2846282100
0.5810623200	-0.0009999500	-0.0286605900	0.0006037478	0.2859222000
0.5827161100	-0.0009999500	-0.0290039350	0.0005986580	0.2871483000
0.5843667400	-0.0009999500	-0.0293470270	0.0005921655	0.2884099500
0.5860129000	-0.0009999500	-0.0296896120	0.0005866357	0.2896220700
0.5876560200	-0.0009999500	-0.0300319700	0.0005843146	0.2908954600
0.5892974100	-0.0009999500	-0.0303743870	0.0005816286	0.2922094200
0.5909363600	-0.0009999500	-0.0307166870	0.0005746692	0.2934007900
0.5925717900	-0.0009999500	-0.0310586820	0.0005680198	0.2947297400
0.5942047800	-0.0009999500	-0.0314005610	0.0005648862	0.2960135300
0.5958362200	-0.0009999500	-0.0317425360	0.0005613646	0.2971538300
0.5974652200	-0.0009999500	-0.0320843940	0.0005560018	0.2984569700
0.5990907500	-0.0009999500	-0.0324259470	0.0005507421	0.2997247600
0.6007138500	-0.0009999500	-0.0327673780	0.0005471908	0.3010219900
0.6023349800	-0.0009999500	-0.0331088190	0.0005435918	0.3023304600
0.6039528800	-0.0009999500	-0.0334499780	0.0005374515	0.3035152300
0.6055663200	-0.0009999500	-0.0337905960	0.0005326878	0.3048039100
0.6071765400	-0.0009999500	-0.0341309350	0.0005293440	0.3061467400
0.6087840800	-0.0009999500	-0.0344711170	0.0005236842	0.3073444100
0.6103861900	-0.0009999500	-0.0348105510	0.0005181925	0.3086284400
0.6119808000	-0.0009999500	-0.0351487880	0.0005133045	0.3099689800
0.6135697400	-0.0009999500	-0.0354862250	0.0005064945	0.3111841100
0.6151536700	-0.0009999500	-0.0358229880	0.0005002313	0.3124542500
0.6167281900	-0.0009999500	-0.0361581410	0.0004958691	0.3137592100
0.6182901300	-0.0009999500	-0.0364910030	0.0004914244	0.3150168700
0.6198427100	-0.0009999500	-0.0368222480	0.0004869356	0.3162717200
0.6213878400	-0.0009999500	-0.0371522830	0.0004825978	0.3175133200
0.6229184300	-0.0009999500	-0.0374795790	0.0004779731	0.3188131500
0.6244288700	-0.0009999500	-0.0378029350	0.0004727209	0.3200596300
0.6259245900	-0.0009999500	-0.0381235000	0.0004671097	0.3212627200
0.6274091600	-0.0009999500	-0.0384420270	0.0004621880	0.3225153100
0.6288741800	-0.0009999500	-0.0387566980	0.0004573816	0.3237253400
0.6303131600	-0.0009999500	-0.0390661100	0.0004524783	0.3249330500
0.6317330000	-0.0009999500	-0.0393717440	0.0004476369	0.3261264000
0.6331398500	-0.0009999500	-0.0396748860	0.0004423550	0.3273085100
0.6345231500	-0.0009999500	-0.0399732660	0.0004370402	0.3284789900
0.6358745100	-0.0009999500	-0.0402650570	0.0004320434	0.3296267700
0.6372028600	-0.0009999500	-0.0405521690	0.0004274967	0.3307625400
0.6385155300	-0.0009999500	-0.0408361740	0.0004237404	0.3318852200
0.6398029900	-0.0009999500	-0.0411149900	0.0004213238	0.3329916900
0.6410556400	-0.0009999500	-0.0413865260	0.0004212205	0.3340833500
0.6422851700	-0.0009999500	-0.0416532940	0.0004246406	0.3351651400
0.6428183300	-0.0009999500	-0.0417690840	0.0004276997	0.3356338100
0.6435087900	-0.0009999500	-0.0419190340	0.0004245350	0.3362229200
0.6447323600	-0.0009999500	-0.0421850010	0.0004193916	0.3372632000
0.6459540700	-0.0009999500	-0.0424508150	0.0004158078	0.3383091400
0.6471115900	-0.0009999500	-0.0427028870	0.0004142078	0.3393183400
0.6471754900	-0.0009999500	-0.0427168090	0.0004138855	0.3393743300
0.6483942300	-0.0009999500	-0.0429824550	0.0004075731	0.3404642900
0.6496041400	-0.0009999500	-0.0432464180	0.0004026775	0.3415714500
0.6508011200	-0.0009999500	-0.0435078070	0.0003984807	0.3426747300
0.6519892200	-0.0009999500	-0.0437674780	0.0003941798	0.3437593600
0.6531717800	-0.0009999500	-0.0440261770	0.0003893724	0.3448230900
0.6543433700	-0.0009999500	-0.0442827050	0.0003840467	0.3458665600
0.6554992800	-0.0009999500	-0.0445360240	0.0003783624	0.3468933400
0.6566442800	-0.0009999500	-0.0447871690	0.0003725524	0.3479118300
0.6577824400	-0.0009999500	-0.0450370240	0.0003667834	0.3489252600
0.6589060400	-0.0009999500	-0.0452839100	0.0003610062	0.3499296000
0.6600090300	-0.0009999500	-0.0455264600	0.0003551389	0.3509261900
0.6610972300	-0.0009999500	-0.0457659620	0.0003491328	0.3519134500
0.6621748800	-0.0009999500	-0.0460033340	0.0003430054	0.3528899300
0.6632353100	-0.0009999500	-0.0462371070	0.0003370270	0.3538580800
0.6642727300	-0.0009999500	-0.0464659890	0.0003315713	0.3548160800
0.6652936900	-0.0009999500	-0.0466914100	0.0003265203	0.3557569100
0.6663041100	-0.0009999500	-0.0469146860	0.0003214099	0.3566860000
0.6672976600	-0.0009999500	-0.0471343990	0.0003161674	0.3576049500
0.6682689800	-0.0009999500	-0.0473493670	0.0003109438	0.3585081700
0.6692234300	-0.0009999500	-0.0475607400	0.0003059773	0.3594052200
0.6701661300	-0.0009999500	-0.0477696810	0.0003013344	0.3602932400
0.6710929900	-0.0009999500	-0.0479752420	0.0002966811	0.3611661500
0.6719998100	-0.0009999500	-0.0481765160	0.0002920216	0.3620317000
0.6728912600	-0.0009999500	-0.0483745080	0.0002875632	0.3628852100
0.6737721600	-0.0009999500	-0.0485702830	0.0002828772	0.3637156200
0.6746386900	-0.0009999500	-0.0487630140	0.0002779326	0.3645414100
0.6754863900	-0.0009999500	-0.0489516590	0.0002735129	0.3653628500
0.6763204900	-0.0009999500	-0.0491374170	0.0002696303	0.3661660600
0.6771466100	-0.0009999500	-0.0493215060	0.0002657317	0.3669596600
0.6779609900	-0.0009999500	-0.0495030880	0.0002617859	0.3677500800
0.6787594600	-0.0009999500	-0.0496812430	0.0002579277	0.3685329300
0.6795463600	-0.0009999500	-0.0498569200	0.0002542107	0.3693086500
0.6803262800	-0.0009999500	-0.0500311550	0.0002505956	0.3700738000
0.6810964300	-0.0009999500	-0.0502033010	0.0002467205	0.3708214500
0.6818540100	-0.0009999500	-0.0503727350	0.0002425421	0.3715624800
0.6826017500	-0.0009999500	-0.0505400670	0.0002384908	0.3723004800
0.6833429300	-0.0009999500	-0.0507060400	0.0002346865	0.3730288400
0.6840751800	-0.0009999500	-0.0508701020	0.0002311296	0.3737561700
0.6847953200	-0.0009999500	-0.0510315340	0.0002280692	0.3744827800
0.6855070600	-0.0009999500	-0.0511911700	0.0002252866	0.3751976800
0.6862145100	-0.0009999500	-0.0513499420	0.0002222220	0.3759046800
0.6869147400	-0.0009999500	-0.0515071790	0.0002186496	0.3766055400
0.6876044300	-0.0009999500	-0.0516621250	0.0002147510	0.3773046700
0.6882869000	-0.0009999500	-0.0518155400	0.0002107499	0.3779968000
0.6889658000	-0.0009999500	-0.0519682240	0.0002068093	0.3786800800
0.6896389100	-0.0009999500	-0.0521196980	0.0002030994	0.3793548300
0.6903041600	-0.0009999500	-0.0522694810	0.0001996872	0.3800281600
0.6909635100	-0.0009999500	-0.0524179970	0.0001967769	0.3807032400
0.6916189200	-0.0009999500	-0.0525657240	0.0001942343	0.3813706600
0.6922698600	-0.0009999500	-0.0527124960	0.0001915653	0.3820291500
0.6929151400	-0.0009999500	-0.0528580810	0.0001884990	0.3826826800
0.6935558900	-0.0009999500	-0.0530027110	0.0001851670	0.3833392000
0.6941935400	-0.0009999500	-0.0531467240	0.0001819780	0.3840034600
0.6948275000	-0.0009999500	-0.0532899650	0.0001792081	0.3846689200
0.6954566800	-0.0009999500	-0.0534321960	0.0001764223	0.3853214400
0.6960822300	-0.0009999500	-0.0535736790	0.0001731089	0.3859669000
0.6967054600	-0.0009999500	-0.0537147070	0.0001692650	0.3866083000
0.6973260000	-0.0009999500	-0.0538551920	0.0001652857	0.3872561500
0.6979431500	-0.0009999500	-0.0539949830	0.0001615887	0.3879043800
0.6985576200	-0.0009999500	-0.0541342350	0.0001586126	0.3885567500
0.6991703500	-0.0009999500	-0.0542731550	0.0001564688	0.3891989900
0.6997808800	-0.0009999500	-0.0544116460	0.0001539054	0.3898218900
0.7003886100	-0.0009999500	-0.0545495670	0.0001505384	0.3904605200
0.7009940700	-0.0009999500	-0.0546870490	0.0001474593	0.3911125700
0.7015980500	-0.0009999500	-0.0548242550	0.0001446325	0.3917521800
0.7022000600	-0.0009999500	-0.0549610700	0.0001413925	0.3923841700
0.7027994400	-0.0009999500	-0.0550973530	0.0001380277	0.3930178600
0.7033966800	-0.0009999500	-0.0552332290	0.0001347398	0.3936437700
0.7039924300	-0.0009999500	-0.0553688220	0.0001314613	0.3942706900
0.7045862100	-0.0009999500	-0.0555040200	0.0001283931	0.3949000200
0.7051773700	-0.0009999500	-0.0556387040	0.0001255393	0.3955326100
0.7057665000	-0.0009999500	-0.0557729830	0.0001229964	0.3961710000
0.7063540800	-0.0009999500	-0.0559069660	0.0001204867	0.3968021900
0.7069395800	-0.0009999500	-0.0560405290	0.0001174676	0.3974318800
0.7075223900	-0.0009999500	-0.0561735630	0.0001141559	0.3980649100
0.7081031200	-0.0009999500	-0.0563061650	0.0001107834	0.3986910000
0.7086821800	-0.0009999500	-0.0564384610	0.0001070132	0.3993044500
0.7092592100	-0.0009999500	-0.0565703440	0.0001031345	0.3999242500
0.7098336200	-0.0009999500	-0.0567016900	0.0001002703	0.4005544500
0.7104058300	-0.0009999500	-0.0568326040	0.0000981329	0.4011685600
0.7109765400	-0.0009999500	-0.0569632200	0.0000957127	0.4017802500
0.7115452300	-0.0009999500	-0.0570934410	0.0000930719	0.4023959900
0.7121114700	-0.0009999500	-0.0572231520	0.0000901532	0.4030085800
0.7126756300	-0.0009999500	-0.0573524530	0.0000869715	0.4036266200
0.7132383600	-0.0009999500	-0.0574814940	0.0000838007	0.4042455300
0.7137992400	-0.0009999500	-0.0576101580	0.0000804872	0.4048610600
0.7143576700	-0.0009999500	-0.0577383120	0.0000769270	0.4054743600
0.7149140800	-0.0009999500	-0.0578660700	0.0000732484	0.4060829900
0.7154690600	-0.0009999500	-0.0579935460	0.0000696181	0.4066900600
0.7160220700	-0.0009999500	-0.0581206380	0.0000664801	0.4073007700
0.7165725800	-0.0009999500	-0.0582472120	0.0000640239	0.4079062300
0.7171211200	-0.0009999500	-0.0583733770	0.0000616530	0.4085025200
0.7176680000	-0.0009999500	-0.0584992210	0.0000589241	0.4091009500
0.7182127200	-0.0009999500	-0.0586246330	0.0000557834	0.4097004500
0.7187548300	-0.0009999500	-0.0587494860	0.0000523344	0.4103008800
0.7192947900	-0.0009999500	-0.0588739030	0.0000492366	0.4109042900
0.7198331400	-0.0009999500	-0.0589980150	0.0000466641	0.4114980100
0.7203692800	-0.0009999500	-0.0591216570	0.0000437122	0.4120802900
0.7209025600	-0.0009999500	-0.0592446960	0.0000403206	0.4126685300
0.7214334000	-0.0009999500	-0.0593672250	0.0000370918	0.4132553600
0.7219621500	-0.0009999500	-0.0594893250	0.0000337615	0.4138378800
0.7224879900	-0.0009999500	-0.0596108030	0.0000303291	0.4144278800
0.7230099400	-0.0009999500	-0.0597314350	0.0000270036	0.4150125700
0.7235287400	-0.0009999500	-0.0598513970	0.0000235876	0.4155896900
0.7240451000	-0.0009999500	-0.0599708410	0.0000204590	0.4161668700
0.7245579400	-0.0009999500	-0.0600895140	0.0000179674	0.4167367500
0.7250663600	-0.0009999500	-0.0602072250	0.0000156363	0.4172955200
0.7255709800	-0.0009999500	-0.0603240950	0.0000131085	0.4178539500
0.7260723100	-0.0009999500	-0.0604402500	0.0000103071	0.4184089900
0.7265698300	-0.0009999500	-0.0605555700	0.0000070231	0.4189593500
0.7270627600	-0.0009999500	-0.0606698770	0.0000036164	0.4195115600
0.7275518800	-0.0009999500	-0.0607833490	0.0000004633	0.4200546700
0.7280379500	-0.0009999500	-0.0608961510	-0.0000025922	0.4205921000
0.7285189000	-0.0009999500	-0.0610078090	-0.0000054817	0.4211255000
0.7289927600	-0.0009999500	-0.0611178690	-0.0000084246	0.4216477300
0.7294614900	-0.0009999500	-0.0612267810	-0.0000116070	0.4221706100
0.7299269400	-0.0009999500	-0.0613349680	-0.0000147642	0.4226915500
0.7303861400	-0.0009999500	-0.0614417420	-0.0000174138	0.4232082700
0.7308363900	-0.0009999500	-0.0615464670	-0.0000195836	0.4237049500
0.7312798500	-0.0009999500	-0.0616496650	-0.0000224333	0.4241838200
0.7317184800	-0.0009999500	-0.0617517720	-0.0000253870	0.4246772200
0.7321500800	-0.0009999500	-0.0618522730	-0.0000272204	0.4251599300
0.7325728500	-0.0009999500	-0.0619507620	-0.0000290457	0.4256151600
0.7329877600	-0.0009999500	-0.0620474480	-0.0000318018	0.4260633600
0.7333954600	-0.0009999500	-0.0621424840	-0.0000349039	0.4265149500
0.7337946300	-0.0009999500	-0.0622355600	-0.0000371881	0.4269679800
0.7341837900	-0.0009999500	-0.0623263420	-0.0000393134	0.4273896200
0.7345646000	-0.0009999500	-0.0624151970	-0.0000422188	0.4278084900
0.7349384400	-0.0009999500	-0.0625024590	-0.0000443694	0.4282330000
0.7353035800	-0.0009999500	-0.0625877080	-0.0000458645	0.4286264500
0.7356585300	-0.0009999500	-0.0626706110	-0.0000482353	0.4290040100
0.7360042900	-0.0009999500	-0.0627513900	-0.0000501396	0.4293956800
0.7363420100	-0.0009999500	-0.0628303140	-0.0000506069	0.4297675800
0.7366707300	-0.0009999500	-0.0629071590	-0.0000510696	0.4301091700
0.7369891400	-0.0009999500	-0.0629816060	-0.0000516231	0.4304525300
0.7373098100	-0.0009999500	-0.0630565960	-0.0000580090	0.4307926600
0.7374385000	-0.0009999500	-0.0630867110	-0.0000604318	0.4309266500
0.7377216200	-0.0009999500	-0.0631529470	-0.0000611137	0.4312700300
0.7379141400	-0.0009999500	-0.0631979930	-0.0000594726	0.4315198100
0.7382839900	-0.0009999500	-0.0632845610	-0.0000603300	0.4319160600
0.7384000400	-0.0009999500	-0.0633117330	-0.0000616177	0.4320252800
0.7386081800	-0.0009999500	-0.0633604680	-0.0000595992	0.4322896900
0.7387625000	-0.0009999500	-0.0633966100	-0.0000600747	0.4324704400
0.7390420400	-0.0009999500	-0.0634620790	-0.0000628462	0.4327366700
0.7393417400	-0.0009999500	-0.0635322850	-0.0000644873	0.4330834200
0.7395190600	-0.0009999500	-0.0635738370	-0.0000655257	0.4332448800
0.7398067100	-0.0009999500	-0.0636412580	-0.0000675884	0.4335745900
0.7399317600	-0.0009999500	-0.0636705680	-0.0000689794	0.4337179400
0.7402499300	-0.0009999500	-0.0637451480	-0.0000664852	0.4340523800
0.7405453900	-0.0009999500	-0.0638144540	-0.0000705016	0.4343660800
0.7406225200	-0.0009999500	-0.0638325360	-0.0000704908	0.4344418000
0.7409217400	-0.0009999500	-0.0639027210	-0.0000722448	0.4348000000
0.7409405700	-0.0009999500	-0.0639071320	-0.0000724932	0.4348222000
0.7412395500	-0.0009999500	-0.0639772940	-0.0000687070	0.4351374800
0.7412729300	-0.0009999500	-0.0639851170	-0.0000683686	0.4351725600
0.7415880600	-0.0009999500	-0.0640590860	-0.0000750587	0.4355031500
0.7419736400	-0.0009999500	-0.0641496030	-0.0000769294	0.4359422300
0.7422294600	-0.0009999500	-0.0642096850	-0.0000763942	0.4362177600
0.7423519500	-0.0009999500	-0.0642384370	-0.0000746955	0.4363610400
0.7426854400	-0.0009999500	-0.0643167870	-0.0000757398	0.4367597400
0.7429776800	-0.0009999500	-0.0643854590	-0.0000745330	0.4370997300
0.7432453000	-0.0009999500	-0.0644483570	-0.0000738025	0.4373984600
0.7432467900	-0.0009999500	-0.0644487070	-0.0000737965	0.4374001000
0.7434983300	-0.0009999500	-0.0645078270	-0.0000727953	0.4376841800
0.7437249400	-0.0009999500	-0.0645611210	-0.0000717688	0.4379485200
0.7439307600	-0.0009999500	-0.0646095280	-0.0000727186	0.4381560400
0.7441249500	-0.0009999500	-0.0646552000	-0.0000700020	0.4383551800
0.7443296300	-0.0009999500	-0.0647033530	-0.0000699072	0.4385797700
0.7445524900	-0.0009999500	-0.0647558120	-0.0000689320	0.4388287700
0.7445579800	-0.0009999500	-0.0647570860	-0.0000688665	0.4388350000
0.7447915100	-0.0009999500	-0.0648120570	-0.0000669224	0.4390849500
0.7449523800	-0.0009999500	-0.0648499280	-0.0000653396	0.4392298200
0.7451793600	-0.0009999500	-0.0649033860	-0.0000646605	0.4394901100
0.7452359200	-0.0009999500	-0.0649167000	-0.0000643314	0.4395414900
0.7455344200	-0.0009999500	-0.0649869960	-0.0000582872	0.4398240100
0.7455805500	-0.0009999500	-0.0649978670	-0.0000572926	0.4398659500
0.7457912000	-0.0009999500	-0.0650474880	-0.0000544318	0.4400492300
0.7460127500	-0.0009999500	-0.0650996940	-0.0000524295	0.4402592500
0.7462728600	-0.0009999500	-0.0651609750	-0.0000472452	0.4405188600
0.7463374100	-0.0009999500	-0.0651761890	-0.0000451149	0.4405725300
0.7465245700	-0.0009999500	-0.0652203110	-0.0000411680	0.4407217200
0.7466545100	-0.0009999500	-0.0652509410	-0.0000345937	0.4408548800
0.7467840900	-0.0009999500	-0.0652814810	-0.0000276645	0.4409632400
0.7468847600	-0.0009999500	-0.0653052180	-0.0000177730	0.4410636700
0.7469688700	-0.0009999500	-0.0653250440	-0.0000014648	0.4411329600
0.7470389600	-0.0009999500	-0.0653415620	0.0000436406	0.4411729000
0.7470973700	-0.0009999500	-0.0653553310	0.0002279956	0.4406934700
0.7471460100	-0.0009999500	-0.0653668050	0.0004414494	0.4398885400
0.7470961200	-0.0009999500	-0.0653696580	0.0003678651	0.4400778400
0.7470362200	-0.0009999500	-0.0653730780	0.0001971850	0.4406074600
0.7469643400	-0.0009999500	-0.0653771760	0.0001542263	0.4405953900
0.7468780900	-0.0009999500	-0.0653821010	0.0001419670	0.4404994800
0.7467782500	-0.0009999500	-0.0653877930	0.0001379924	0.4403727700
0.7466626200	-0.0009999500	-0.0653943940	0.0001369756	0.4402004200
0.7466486100	-0.0009999500	-0.0653951910	0.0001368313	0.4401791100
0.7465116400	-0.0009999500	-0.0654029920	0.0001345269	0.4399704000
0.7463574400	-0.0009999500	-0.0654117840	0.0001360419	0.4397130000
0.7463152400	-0.0009999500	-0.0654141900	0.0001360934	0.4396413000
0.7462810300	-0.0009999500	-0.0654161420	0.0001365586	0.4395874700
0.7460727700	-0.0009999500	-0.0654280040	0.0001379950	0.4392478200
0.7460089900	-0.0009999500	-0.0654316400	0.0001372204	0.4391475900
0.7456994100	-0.0009999500	-0.0654492680	0.0001379626	0.4386354700
0.7456860500	-0.0009999500	-0.0654500280	0.0001381791	0.4386109700
0.7456371200	-0.0009999500	-0.0654528070	0.0001386320	0.4385185800
0.7453904700	-0.0009999500	-0.0654668290	0.0001409522	0.4380567700
0.7453439800	-0.0009999500	-0.0654694740	0.0001419994	0.4379786600
0.7450709900	-0.0009999500	-0.0654849780	0.0001501273	0.4375092100
0.7448295400	-0.0009999500	-0.0654986800	0.0001529485	0.4370843800
0.7446758700	-0.0009999500	-0.0655073970	0.0001548297	0.4368354400
0.7444564100	-0.0009999500	-0.0655198400	0.0001585860	0.4364189500
0.7442624000	-0.0009999500	-0.0655308220	0.0001599288	0.4360868300
0.7442490500	-0.0009999500	-0.0655315740	0.0001601004	0.4360622800
0.7440619500	-0.0009999500	-0.0655421610	0.0001614565	0.4356870900
0.7438452800	-0.0009999500	-0.0655544180	0.0001659455	0.4352893200
0.7436133600	-0.0009999500	-0.0655675230	0.0001699412	0.4348661000
0.7433646300	-0.0009999500	-0.0655815680	0.0001758125	0.4344296500
0.7432232500	-0.0009999500	-0.0655895400	0.0001789751	0.4341828500
0.7431051700	-0.0009999500	-0.0655962010	0.0001799538	0.4339744200
0.7428376100	-0.0009999500	-0.0656112810	0.0001812811	0.4334978200
0.7425580600	-0.0009999500	-0.0656270160	0.0001831475	0.4329951100
0.7422491900	-0.0009999500	-0.0656443910	0.0001859237	0.4324624500
0.7419158800	-0.0009999500	-0.0656631220	0.0001897313	0.4318816700
0.7415582500	-0.0009999500	-0.0656831940	0.0001946816	0.4312855000
0.7413675200	-0.0009999500	-0.0656938930	0.0001977706	0.4309653600
0.7412067700	-0.0009999500	-0.0657029080	0.0002004415	0.4307002100
0.7411948400	-0.0009999500	-0.0657035780	0.0002004408	0.4306815000
0.7408887100	-0.0009999500	-0.0657207150	0.0002132771	0.4301841600
0.7405407400	-0.0009999500	-0.0657401900	0.0002099402	0.4296498000
0.7405102300	-0.0009999500	-0.0657418970	0.0002106393	0.4295997300
0.7401862100	-0.0009999500	-0.0657600090	0.0002130617	0.4290249000
0.7400898900	-0.0009999500	-0.0657653810	0.0002151123	0.4288907900
0.7397584900	-0.0009999500	-0.0657838880	0.0002218341	0.4283405500
0.7396194300	-0.0009999500	-0.0657916370	0.0002256128	0.4281425200
0.7392808800	-0.0009999500	-0.0658105090	0.0002332932	0.4276034500
0.7390914000	-0.0009999500	-0.0658210590	0.0002365851	0.4273279000
0.7387612500	-0.0009999500	-0.0658394250	0.0002454029	0.4267779300
0.7384877200	-0.0009999500	-0.0658546310	0.0002433469	0.4263846000
0.7383568300	-0.0009999500	-0.0658619030	0.0002395803	0.4261746100
0.7382836300	-0.0009999500	-0.0658659640	0.0002429391	0.4260759700
0.7378714100	-0.0009999500	-0.0658888370	0.0002501935	0.4253853900
0.7377333600	-0.0009999500	-0.0658964890	0.0002503610	0.4251232100
0.7373897400	-0.0009999500	-0.0659155250	0.0002571566	0.4245672500
0.7372927100	-0.0009999500	-0.0659208970	0.0002607648	0.4244335300
0.7369712600	-0.0009999500	-0.0659386810	0.0002699470	0.4239824700
0.7366522000	-0.0009999500	-0.0659563090	0.0002702922	0.4235052500
0.7363241300	-0.0009999500	-0.0659744220	0.0002719280	0.4229976500
0.7359876600	-0.0009999500	-0.0659929740	0.0002761839	0.4224693500
0.7356440400	-0.0009999500	-0.0660118980	0.0002818180	0.4219497400
0.7352923200	-0.0009999500	-0.0660312470	0.0002864453	0.4214424200
0.7349312900	-0.0009999500	-0.0660510880	0.0002901924	0.4209094000
0.7345620400	-0.0009999500	-0.0660713540	0.0002944066	0.4203620600
0.7341859300	-0.0009999500	-0.0660919700	0.0002990068	0.4198041900
0.7338022000	-0.0009999500	-0.0661129800	0.0003037522	0.4192386300
0.7334094000	-0.0009999500	-0.0661344600	0.0003084254	0.4186684200
0.7330088000	-0.0009999500	-0.0661563350	0.0003130955	0.4180937100
0.7326021800	-0.0009999500	-0.0661785080	0.0003178229	0.4175162300
0.7321890600	-0.0009999500	-0.0662010090	0.0003225550	0.4169347600
0.7317686100	-0.0009999500	-0.0662238750	0.0003273085	0.4163480700
0.7313417800	-0.0009999500	-0.0662470530	0.0003320106	0.4157574200
0.7309103000	-0.0009999500	-0.0662704560	0.0003366098	0.4151621200
0.7304730400	-0.0009999500	-0.0662941340	0.0003411791	0.4145621400
0.7300280900	-0.0009999500	-0.0663181990	0.0003453233	0.4139625700
0.7295772400	-0.0009999500	-0.0663425400	0.0003497119	0.4133406900
0.7291227000	-0.0009999500	-0.0663670520	0.0003549874	0.4127239900
0.7286636200	-0.0009999500	-0.0663917660	0.0003602459	0.4121201900
0.7281987100	-0.0009999500	-0.0664167630	0.0003648753	0.4115167300
0.7277288400	-0.0009999500	-0.0664419760	0.0003687683	0.4108962700
0.7272554000	-0.0009999500	-0.0664673520	0.0003734786	0.4102491700
0.7267777900	-0.0009999500	-0.0664929000	0.0003787863	0.4096317900
0.7262952900	-0.0009999500	-0.0665186790	0.0003826324	0.4090258500
0.7258085600	-0.0009999500	-0.0665446370	0.0003865716	0.4083880500
0.7253183100	-0.0009999500	-0.0665707440	0.0003921967	0.4077516500
0.7248236500	-0.0009999500	-0.0665970440	0.0003975083	0.4071406400
0.7243235700	-0.0009999500	-0.0666235830	0.0004014789	0.4065151500
0.7238194900	-0.0009999500	-0.0666502940	0.0004058302	0.4058684100
0.7233130900	-0.0009999500	-0.0666770860	0.0004110388	0.4052332600
0.7228030000	-0.0009999500	-0.0667040200	0.0004159877	0.4046115000
0.7222878900	-0.0009999500	-0.0667311770	0.0004204962	0.4039842200
0.7217690900	-0.0009999500	-0.0667584840	0.0004249715	0.4033539900
0.7212474900	-0.0009999500	-0.0667858870	0.0004284718	0.4027371700
0.7207225600	-0.0009999500	-0.0668134170	0.0004312488	0.4020943300
0.7201937400	-0.0009999500	-0.0668411030	0.0004357665	0.4014313200
0.7196617100	-0.0009999500	-0.0668689090	0.0004414039	0.4008050900
0.7191272400	-0.0009999500	-0.0668967960	0.0004456755	0.4001969100
0.7185894800	-0.0009999500	-0.0669247960	0.0004493380	0.3995646800
0.7180477400	-0.0009999500	-0.0669529590	0.0004537189	0.3989307600
0.7175029500	-0.0009999500	-0.0669812260	0.0004578316	0.3983125400
0.7169560800	-0.0009999500	-0.0670095530	0.0004615227	0.3976835300
0.7164063500	-0.0009999500	-0.0670379700	0.0004649923	0.3970611700
0.7158533300	-0.0009999500	-0.0670665130	0.0004686877	0.3964245300
0.7152976400	-0.0009999500	-0.0670951310	0.0004736651	0.3957883100
0.7147400400	-0.0009999500	-0.0671238010	0.0004788460	0.3951686000
0.7141796900	-0.0009999500	-0.0671525520	0.0004829572	0.3945549700
0.7136157800	-0.0009999500	-0.0671814380	0.0004862233	0.3939367500
0.7130491100	-0.0009999500	-0.0672104060	0.0004897211	0.3933042300
0.7124803100	-0.0009999500	-0.0672394340	0.0004941154	0.3926752500
0.7119086400	-0.0009999500	-0.0672685430	0.0004986131	0.3920675800
0.7113336300	-0.0009999500	-0.0672977720	0.0005022462	0.3914640800
0.7107559400	-0.0009999500	-0.0673270750	0.0005061167	0.3908275700
0.7101761700	-0.0009999500	-0.0673564300	0.0005110797	0.3901956400
0.7095937700	-0.0009999500	-0.0673858600	0.0005155787	0.3895885300
0.7090079200	-0.0009999500	-0.0674154010	0.0005192847	0.3889710300
0.7084196200	-0.0009999500	-0.0674450100	0.0005229697	0.3883545400
0.7078294800	-0.0009999500	-0.0674746480	0.0005264946	0.3877419500
0.7072369500	-0.0009999500	-0.0675043540	0.0005299335	0.3871224800
0.7066412600	-0.0009999500	-0.0675341560	0.0005337934	0.3864953500
0.7060431800	-0.0009999500	-0.0675640180	0.0005384639	0.3858743300
0.7054435600	-0.0009999500	-0.0675938950	0.0005425814	0.3852880300
0.7048417300	-0.0009999500	-0.0676238160	0.0005456406	0.3846867100
0.7042371000	-0.0009999500	-0.0676538200	0.0005487209	0.3840765100
0.7036303300	-0.0009999500	-0.0676838680	0.0005518896	0.3834637100
0.7030220600	-0.0009999500	-0.0677139240	0.0005559853	0.3828413200
0.7024117100	-0.0009999500	-0.0677440240	0.0005606562	0.3822448300
0.7017987400	-0.0009999500	-0.0677741840	0.0005647752	0.3816494900
0.7011838000	-0.0009999500	-0.0678043810	0.0005683917	0.3810529100
0.7005673600	-0.0009999500	-0.0678345930	0.0005714490	0.3804508100
0.6999487900	-0.0009999500	-0.0678648350	0.0005749618	0.3798317000
0.6993277100	-0.0009999500	-0.0678951440	0.0005793068	0.3792332100
0.6987046000	-0.0009999500	-0.0679254830	0.0005832663	0.3786517400
0.6980800600	-0.0009999500	-0.0679558290	0.0005864495	0.3780643900
0.6974533200	-0.0009999500	-0.0679862130	0.0005897969	0.3774623300
0.6968237200	-0.0009999500	-0.0680166710	0.0005938096	0.3768659200
0.6961919700	-0.0009999500	-0.0680471660	0.0005976233	0.3762867700
0.6955584300	-0.0009999500	-0.0680776760	0.0006010925	0.3757024700
0.6949225700	-0.0009999500	-0.0681082380	0.0006044491	0.3751140800
0.6942836600	-0.0009999500	-0.0681388750	0.0006077055	0.3745163400
0.6936425000	-0.0009999500	-0.0681695570	0.0006111936	0.3739209200
0.6929996000	-0.0009999500	-0.0682002450	0.0006151932	0.3733283300
0.6923542000	-0.0009999500	-0.0682309940	0.0006188414	0.3727541600
0.6917057600	-0.0009999500	-0.0682618100	0.0006217573	0.3721720900
0.6910548200	-0.0009999500	-0.0682926770	0.0006251807	0.3715807500
0.6904019100	-0.0009999500	-0.0683235750	0.0006285695	0.3710110500
0.6897456600	-0.0009999500	-0.0683545470	0.0006319152	0.3704246000
0.6890848900	-0.0009999500	-0.0683856680	0.0006358188	0.3698455400
0.6884207100	-0.0009999500	-0.0684168790	0.0006389417	0.3692787000
0.6877535600	-0.0009999500	-0.0684481490	0.0006420357	0.3686837000
0.6870818100	-0.0009999500	-0.0684795680	0.0006459148	0.3681016000
0.6864045300	-0.0009999500	-0.0685111660	0.0006496386	0.3675263800
0.6857225300	-0.0009999500	-0.0685429130	0.0006534215	0.3669432700
0.6850361200	-0.0009999500	-0.0685747860	0.0006565341	0.3663765200
0.6843429800	-0.0009999500	-0.0686068910	0.0006591341	0.3657784800
0.6836412500	-0.0009999500	-0.0686393160	0.0006631063	0.3651625500
0.6829327900	-0.0009999500	-0.0686719720	0.0006676540	0.3645713600
0.6822186700	-0.0009999500	-0.0687048060	0.0006712598	0.3639861900
0.6814954900	-0.0009999500	-0.0687379690	0.0006746897	0.3633819500
0.6807605000	-0.0009999500	-0.0687715860	0.0006785243	0.3627751800
0.6800161000	-0.0009999500	-0.0688055530	0.0006821096	0.3621684000