TITLE     = "Surface mesh and solution"
VARIABLES = "x"
"y"
"z"
"cf_x"
"Cp"
DATASETAUXDATA alpha_deg="  0.0000000E+00"
DATASETAUXDATA beta_deg="  0.0000000E+00"
DATASETAUXDATA bref="  0.7500000"
DATASETAUXDATA cref="   1.000000"
DATASETAUXDATA itranflg="           0"
DATASETAUXDATA ivisc="           2"
DATASETAUXDATA mach="  0.2000000"
DATASETAUXDATA reue_mil="   4.600000"
DATASETAUXDATA sref="  0.7500000"
DATASETAUXDATA tinf_r="   521.0000"
DATASETAUXDATA xmc="  0.0000000E+00"
DATASETAUXDATA ymc="  0.0000000E+00"
DATASETAUXDATA zmc="  0.0000000E+00"
ZONE T="USM3D-ME, HeldenMesh_R, Slice: Y=-0.001"
 STRANDID=0, SOLUTIONTIME=0
 Nodes=1675, Elements=1653, ZONETYPE=FELineSeg
 DATAPACKING=POINT
 DT=(DOUBLE DOUBLE DOUBLE DOUBLE DOUBLE )
 -1.438849465E-01 -1.000000000E-03 5.983825983E-02 4.500262765E-03 -3.458746248E-01
 -1.432090091E-01 -1.000000000E-03 5.989027012E-02 4.494446195E-03 -3.452063957E-01
 -1.447828632E-01 -1.000000000E-03 5.976781769E-02 4.510881708E-03 -3.468537633E-01
 -1.423680984E-01 -1.000000000E-03 5.995411557E-02 4.476650686E-03 -3.441819126E-01
 -1.416500075E-01 -1.000000000E-03 6.000759009E-02 4.466993224E-03 -3.429906197E-01
 -1.408914361E-01 -1.000000000E-03 6.006329027E-02 4.452866630E-03 -3.418821101E-01
 -1.401040426E-01 -1.000000000E-03 6.012006195E-02 4.443428972E-03 -3.406359588E-01
 -1.394181477E-01 -1.000000000E-03 6.016874095E-02 4.436740747E-03 -3.397151867E-01
 -1.385614197E-01 -1.000000000E-03 6.022851497E-02 4.435171760E-03 -3.388852058E-01
 -1.379228680E-01 -1.000000000E-03 6.027229536E-02 4.425692617E-03 -3.381512042E-01
 -1.369587372E-01 -1.000000000E-03 6.033726250E-02 4.418841782E-03 -3.370721165E-01
 -1.363781085E-01 -1.000000000E-03 6.037569198E-02 4.408385206E-03 -3.364325103E-01
 -1.353588590E-01 -1.000000000E-03 6.044194018E-02 4.393079811E-03 -3.352620453E-01
 -1.348468671E-01 -1.000000000E-03 6.047462448E-02 4.384166259E-03 -3.346582199E-01
 -1.337470461E-01 -1.000000000E-03 6.054354684E-02 4.371360015E-03 -3.333261254E-01
 -1.333067419E-01 -1.000000000E-03 6.057063231E-02 4.365723093E-03 -3.328106412E-01
 -1.321070305E-01 -1.000000000E-03 6.064301656E-02 4.359079831E-03 -3.314849233E-01
 -1.317380756E-01 -1.000000000E-03 6.066486647E-02 4.352964262E-03 -3.310438634E-01
 -1.304734753E-01 -1.000000000E-03 6.073824098E-02 4.333099557E-03 -3.293822177E-01
 -1.301788144E-01 -1.000000000E-03 6.075502205E-02 4.328075025E-03 -3.290080169E-01
 -1.288271725E-01 -1.000000000E-03 6.083037174E-02 4.323869296E-03 -3.273731542E-01
 -1.286114880E-01 -1.000000000E-03 6.084217052E-02 4.321050177E-03 -3.271350438E-01
 -1.271543714E-01 -1.000000000E-03 6.092010582E-02 4.305579850E-03 -3.258071395E-01
 -1.270384395E-01 -1.000000000E-03 6.092618994E-02 4.303553655E-03 -3.256880544E-01
 -1.254866939E-01 -1.000000000E-03 6.100572634E-02 4.278639449E-03 -3.241018482E-01
 -1.248797668E-01 -1.000000000E-03 6.103553666E-02 4.272651790E-03 -3.234776675E-01
 -1.254530494E-01 -1.000000000E-03 6.100741811E-02 4.278008696E-03 -3.240663470E-01
 -1.238611843E-01 -1.000000000E-03 6.108552729E-02 4.251559572E-03 -3.224560369E-01
 -1.238030730E-01 -1.000000000E-03 6.108830605E-02 4.251268512E-03 -3.224136424E-01
 -1.222950022E-01 -1.000000000E-03 6.115905767E-02 4.200510520E-03 -3.202421826E-01
 -1.220766267E-01 -1.000000000E-03 6.116901878E-02 4.201099309E-03 -3.199492064E-01
 -1.207444264E-01 -1.000000000E-03 6.122867922E-02 4.170400836E-03 -3.182221217E-01
 -1.203348849E-01 -1.000000000E-03 6.124650554E-02 4.175957858E-03 -3.176743369E-01
 -1.192204943E-01 -1.000000000E-03 6.129407038E-02 4.161513530E-03 -3.167455367E-01
 -1.186222102E-01 -1.000000000E-03 6.131891044E-02 4.158758915E-03 -3.162436559E-01
 -1.176563184E-01 -1.000000000E-03 6.135812098E-02 4.138925946E-03 -3.153692446E-01
 -1.169047134E-01 -1.000000000E-03 6.138779709E-02 4.131907308E-03 -3.144848454E-01
 -1.160697054E-01 -1.000000000E-03 6.141997230E-02 4.114524973E-03 -3.136656549E-01
 -1.151678696E-01 -1.000000000E-03 6.145372586E-02 4.105352589E-03 -3.126947284E-01
 -1.144435455E-01 -1.000000000E-03 6.148015857E-02 4.089660566E-03 -3.119689585E-01
 -1.134301095E-01 -1.000000000E-03 6.151601510E-02 4.079066574E-03 -3.108218508E-01
 -1.128216829E-01 -1.000000000E-03 6.153698839E-02 4.068460418E-03 -3.101789069E-01
 3.860292474E-02 -1.000000000E-03 5.679912765E-02 2.575258704E-03 -1.610671758E-01
 4.000358183E-02 -1.000000000E-03 5.668655115E-02 2.579110456E-03 -1.596383255E-01
 3.680414221E-02 -1.000000000E-03 5.694191947E-02 2.596342314E-03 -1.628559040E-01
 4.101270982E-02 -1.000000000E-03 5.660515368E-02 2.566527138E-03 -1.587398903E-01
 -2.455988255E-01 -1.000000000E-03 9.866428436E-03 2.182541091E-04 9.823718046E-01
 -2.454456752E-01 -1.000000000E-03 9.635829222E-03 2.719431214E-04 9.815699013E-01
 -2.453405495E-01 -1.000000000E-03 9.483440058E-03 3.050629876E-04 9.803873072E-01
 -2.457264786E-01 -1.000000000E-03 1.005839627E-02 1.715877637E-04 9.833467171E-01
 -2.451636460E-01 -1.000000000E-03 9.227553559E-03 3.593554742E-04 9.782798074E-01
 -2.448831738E-01 -1.000000000E-03 8.836273169E-03 4.475849908E-04 9.750982865E-01
 -2.448674423E-01 -1.000000000E-03 8.814299279E-03 4.523761767E-04 9.749349358E-01
 -2.448566087E-01 -1.000000000E-03 8.799679884E-03 4.555230859E-04 9.747980436E-01
 -2.445664236E-01 -1.000000000E-03 8.408958051E-03 5.444414689E-04 9.719366438E-01
 -2.443450550E-01 -1.000000000E-03 8.120661834E-03 6.055405311E-04 9.683296874E-01
 -2.442497530E-01 -1.000000000E-03 7.996800413E-03 6.282606387E-04 9.668612621E-01
 -2.440988764E-01 -1.000000000E-03 7.806939656E-03 6.719927970E-04 9.645356004E-01
 -2.439244636E-01 -1.000000000E-03 7.587154980E-03 7.175304335E-04 9.621424150E-01
 -2.438179133E-01 -1.000000000E-03 7.456848271E-03 7.425645432E-04 9.602836621E-01
 -2.435984028E-01 -1.000000000E-03 7.189131976E-03 7.869086674E-04 9.561534187E-01
 -2.432866008E-01 -1.000000000E-03 6.819573891E-03 8.583567602E-04 9.508837010E-01
 -2.432576167E-01 -1.000000000E-03 6.785313339E-03 8.634317195E-04 9.504836555E-01
 -2.431972367E-01 -1.000000000E-03 6.715880793E-03 8.791755565E-04 9.493462822E-01
 -2.429068912E-01 -1.000000000E-03 6.381582265E-03 9.445057395E-04 9.443234780E-01
 -2.427529326E-01 -1.000000000E-03 6.208916685E-03 9.796945951E-04 9.415240983E-01
 -2.425512476E-01 -1.000000000E-03 5.983434143E-03 1.026223482E-03 9.381536521E-01
 -2.421890982E-01 -1.000000000E-03 5.588805721E-03 1.110084024E-03 9.309008667E-01
 -2.421881756E-01 -1.000000000E-03 5.587798772E-03 1.110281988E-03 9.308833837E-01
 -2.421876519E-01 -1.000000000E-03 5.587241331E-03 1.110386417E-03 9.308732999E-01
 -2.418138148E-01 -1.000000000E-03 5.190643350E-03 1.179616335E-03 9.238724019E-01
 -2.416163591E-01 -1.000000000E-03 4.986112580E-03 1.215456575E-03 9.200356397E-01
 -2.414434013E-01 -1.000000000E-03 4.807583051E-03 1.240314844E-03 9.167041607E-01
 -2.411193041E-01 -1.000000000E-03 4.480654508E-03 1.291027244E-03 9.101980878E-01
 -2.410633401E-01 -1.000000000E-03 4.424120310E-03 1.298914908E-03 9.091176047E-01
 -2.410329562E-01 -1.000000000E-03 4.394116839E-03 1.303324711E-03 9.085305852E-01
 -2.406827738E-01 -1.000000000E-03 4.049299901E-03 1.342547206E-03 9.017435228E-01
 -2.404466818E-01 -1.000000000E-03 3.821896441E-03 1.374647149E-03 8.971798683E-01
 -2.402977982E-01 -1.000000000E-03 3.678761928E-03 1.390594859E-03 8.943576204E-01
 -2.400079246E-01 -1.000000000E-03 3.406136491E-03 1.440222483E-03 8.888764557E-01
 -2.398924290E-01 -1.000000000E-03 3.297420620E-03 1.456572114E-03 8.867052214E-01
 -2.398283129E-01 -1.000000000E-03 3.238347949E-03 1.466770912E-03 8.854880713E-01
 -2.394698192E-01 -1.000000000E-03 2.908863271E-03 1.526548841E-03 8.788282904E-01
 -2.391814972E-01 -1.000000000E-03 2.649393865E-03 1.568460913E-03 8.732613224E-01
 -2.390386652E-01 -1.000000000E-03 2.521247317E-03 1.578754126E-03 8.703876512E-01
 -2.387737500E-01 -1.000000000E-03 2.288271650E-03 1.613979905E-03 8.654306318E-01
 -2.386110150E-01 -1.000000000E-03 2.144964346E-03 1.629233181E-03 8.623817701E-01
 -2.385282143E-01 -1.000000000E-03 2.073419299E-03 1.638713565E-03 8.608542255E-01
 -2.381807880E-01 -1.000000000E-03 1.774147284E-03 1.670806309E-03 8.545531907E-01
 -2.378821949E-01 -1.000000000E-03 1.521558387E-03 1.703846407E-03 8.491298366E-01
 -2.377537035E-01 -1.000000000E-03 1.413128099E-03 1.711178014E-03 8.468200327E-01
 -2.374978832E-01 -1.000000000E-03 1.201035389E-03 1.743091592E-03 8.421445575E-01
 -2.373103777E-01 -1.000000000E-03 1.045431375E-03 1.760356663E-03 8.387827742E-01
 -2.372111251E-01 -1.000000000E-03 9.644835882E-04 1.772091518E-03 8.370365897E-01
 -2.368617277E-01 -1.000000000E-03 6.801436848E-04 1.804301301E-03 8.311590896E-01
 -2.365112795E-01 -1.000000000E-03 3.998463994E-04 1.845329593E-03 8.248696718E-01
 -2.363961169E-01 -1.000000000E-03 3.079245658E-04 1.847984111E-03 8.226781504E-01
 -2.361497957E-01 -1.000000000E-03 1.146892928E-04 1.873105460E-03 8.184429133E-01
 -2.359195708E-01 -1.000000000E-03 -6.608142382E-05 1.885647720E-03 8.144592177E-01
 -2.358156653E-01 -1.000000000E-03 -1.463376475E-04 1.895739617E-03 8.126850994E-01
 -2.354475930E-01 -1.000000000E-03 -4.298753311E-04 1.927250857E-03 8.063283477E-01
 -2.351162299E-01 -1.000000000E-03 -6.810473591E-04 1.955027974E-03 8.007775693E-01
 1.015382515E-01 -1.000000000E-03 -6.842070198E-02 2.036152625E-03 1.873098505E-01
 9.893768557E-02 -1.000000000E-03 -6.825283354E-02 2.038767019E-03 1.873246444E-01
 9.801615286E-02 -1.000000000E-03 -6.819279391E-02 2.040698889E-03 1.873521067E-01
 9.539738998E-02 -1.000000000E-03 -6.802035184E-02 2.053612500E-03 1.875222698E-01
 -2.762937646E-02 -1.000000000E-03 -5.649485716E-02 2.439707169E-03 2.164182420E-01
 -2.730772557E-02 -1.000000000E-03 -5.653554870E-02 2.440021251E-03 2.162750246E-01
 -2.995872928E-02 -1.000000000E-03 -5.619799032E-02 2.447364163E-03 2.174589876E-01
 -2.514242040E-02 -1.000000000E-03 -5.680790513E-02 2.437511145E-03 2.152342289E-01
 -2.461230718E-02 -1.000000000E-03 -5.687409929E-02 2.436895346E-03 2.150319003E-01
 -2.269745586E-02 -1.000000000E-03 -5.711180999E-02 2.426875530E-03 2.143686706E-01
 -2.200529037E-02 -1.000000000E-03 -5.719711853E-02 2.426956056E-03 2.141338934E-01
 -2.032738074E-02 -1.000000000E-03 -5.740280134E-02 2.433070808E-03 2.135285746E-01
 -1.938019421E-02 -1.000000000E-03 -5.751801376E-02 2.434511133E-03 2.131336141E-01
 -1.789636130E-02 -1.000000000E-03 -5.769761449E-02 2.431420768E-03 2.124327956E-01
 -1.663485067E-02 -1.000000000E-03 -5.784902330E-02 2.433430279E-03 2.118564522E-01
 -1.537818706E-02 -1.000000000E-03 -5.799913458E-02 2.419856920E-03 2.112842462E-01
 -1.375531581E-02 -1.000000000E-03 -5.819127816E-02 2.415041361E-03 2.106506294E-01
 -1.281034395E-02 -1.000000000E-03 -5.830260483E-02 2.395045246E-03 2.102458363E-01
 -1.073427355E-02 -1.000000000E-03 -5.854501680E-02 2.382823122E-03 2.095590383E-01
 -1.022137120E-02 -1.000000000E-03 -5.860457099E-02 2.376907427E-03 2.094061457E-01
 -7.830446829E-03 -1.000000000E-03 -5.887988847E-02 2.363274298E-03 2.085503058E-01
 -7.601322070E-03 -1.000000000E-03 -5.890610737E-02 2.362722085E-03 2.084641015E-01
 -5.280748992E-03 -1.000000000E-03 -5.916959200E-02 2.358855408E-03 2.076454266E-01
 -4.965157530E-03 -1.000000000E-03 -5.920543735E-02 2.356859367E-03 2.075307030E-01
 -4.931822710E-03 -1.000000000E-03 -5.920919239E-02 2.356767125E-03 2.075198063E-01
 -2.309616366E-03 -1.000000000E-03 -5.950283351E-02 2.343443295E-03 2.066898815E-01
 -2.010007268E-03 -1.000000000E-03 -5.953611203E-02 2.343328415E-03 2.065910892E-01
 3.219703529E-04 -1.000000000E-03 -5.979359056E-02 2.333645835E-03 2.057437459E-01
 8.712283806E-04 -1.000000000E-03 -5.985374080E-02 2.333966199E-03 2.055609951E-01
 3.008404510E-03 -1.000000000E-03 -6.008638973E-02 2.327794645E-03 2.048077254E-01
 3.818911741E-03 -1.000000000E-03 -6.017390025E-02 2.327215795E-03 2.045592085E-01
 5.695572686E-03 -1.000000000E-03 -6.037525937E-02 2.321062681E-03 2.040051816E-01
 6.784277816E-03 -1.000000000E-03 -6.049114040E-02 2.321474861E-03 2.037005048E-01
 8.349436895E-03 -1.000000000E-03 -6.065668734E-02 2.315759583E-03 2.032244241E-01
 9.733989163E-03 -1.000000000E-03 -6.080194007E-02 2.319277497E-03 2.027223456E-01
 1.102398892E-02 -1.000000000E-03 -6.093645581E-02 2.308407417E-03 2.022218719E-01
 1.273425382E-02 -1.000000000E-03 -6.111328526E-02 2.305474990E-03 2.017074852E-01
 1.362872535E-02 -1.000000000E-03 -6.120525950E-02 2.298944324E-03 2.014815960E-01
 1.586321157E-02 -1.000000000E-03 -6.143293111E-02 2.291733897E-03 2.010346092E-01
 1.632865810E-02 -1.000000000E-03 -6.148010365E-02 2.286755084E-03 2.009786714E-01
 1.898529530E-02 -1.000000000E-03 -6.174680906E-02 2.286271918E-03 2.002465157E-01
 1.909931116E-02 -1.000000000E-03 -6.175819082E-02 2.285769468E-03 2.002027170E-01
 2.052661059E-02 -1.000000000E-03 -6.189935571E-02 2.283360459E-03 1.998775639E-01
 2.192534182E-02 -1.000000000E-03 -6.203773430E-02 2.275671203E-03 1.995502828E-01
 2.204250386E-02 -1.000000000E-03 -6.204922050E-02 2.275525562E-03 1.995231265E-01
 2.475991174E-02 -1.000000000E-03 -6.231402233E-02 2.271437328E-03 1.989166698E-01
 2.511852290E-02 -1.000000000E-03 -6.234865502E-02 2.271277260E-03 1.988259163E-01
 2.762136995E-02 -1.000000000E-03 -6.258885340E-02 2.264005689E-03 1.981225073E-01
 2.820760634E-02 -1.000000000E-03 -6.264461639E-02 2.263475793E-03 1.979742003E-01
 3.049464743E-02 -1.000000000E-03 -6.286075825E-02 2.249504592E-03 1.974275690E-01
 3.130080906E-02 -1.000000000E-03 -6.293627108E-02 2.247960290E-03 1.972429922E-01
 3.341204271E-02 -1.000000000E-03 -6.313272255E-02 2.236964237E-03 1.967486516E-01
 3.443496405E-02 -1.000000000E-03 -6.322706061E-02 2.234507146E-03 1.965131262E-01
 3.635580057E-02 -1.000000000E-03 -6.340299008E-02 2.224779478E-03 1.960343464E-01
 3.761154645E-02 -1.000000000E-03 -6.351698639E-02 2.220564882E-03 1.957950659E-01
 3.931491846E-02 -1.000000000E-03 -6.367053040E-02 2.209228251E-03 1.955059154E-01
 4.082325512E-02 -1.000000000E-03 -6.380526470E-02 2.206869305E-03 1.952036908E-01
 4.233426042E-02 -1.000000000E-03 -6.393928567E-02 2.209139703E-03 1.948154600E-01
 4.405428522E-02 -1.000000000E-03 -6.409044492E-02 2.209389034E-03 1.944338478E-01
 4.516960312E-02 -1.000000000E-03 -6.418786845E-02 2.219927217E-03 1.943448926E-01
 4.746807750E-02 -1.000000000E-03 -6.438655275E-02 2.221256778E-03 1.939296295E-01
 4.787648484E-02 -1.000000000E-03 -6.442175694E-02 2.200072151E-03 1.937963759E-01
 4.895024341E-02 -1.000000000E-03 -6.451305930E-02 2.222098310E-03 1.936775316E-01
 5.092543934E-02 -1.000000000E-03 -6.468115277E-02 2.216333069E-03 1.933826826E-01
 5.164754110E-02 -1.000000000E-03 -6.474180959E-02 2.215438498E-03 1.932410482E-01
 5.395846597E-02 -1.000000000E-03 -6.493508697E-02 2.183783691E-03 1.927291076E-01
 5.540752411E-02 -1.000000000E-03 -6.505478603E-02 2.185975230E-03 1.924792611E-01
 5.690350096E-02 -1.000000000E-03 -6.517780503E-02 2.176625291E-03 1.922514133E-01
 5.911868811E-02 -1.000000000E-03 -6.535773980E-02 2.171548231E-03 1.918851756E-01
 5.989950368E-02 -1.000000000E-03 -6.542087201E-02 2.153172091E-03 1.917197129E-01
 6.295736965E-02 -1.000000000E-03 -6.566499311E-02 2.144297351E-03 1.912829792E-01
 6.308379410E-02 -1.000000000E-03 -6.567501558E-02 2.144650001E-03 1.912605978E-01
 6.415380848E-02 -1.000000000E-03 -6.575893953E-02 2.139840491E-03 1.910967334E-01
 6.625914325E-02 -1.000000000E-03 -6.592414099E-02 2.122936199E-03 1.907534416E-01
 6.649771665E-02 -1.000000000E-03 -6.594265873E-02 2.122664490E-03 1.907235680E-01
 6.941916302E-02 -1.000000000E-03 -6.616785192E-02 2.111924838E-03 1.903819054E-01
 7.005975761E-02 -1.000000000E-03 -6.621670894E-02 2.110755261E-03 1.903226803E-01
 7.255916693E-02 -1.000000000E-03 -6.640594248E-02 2.108900025E-03 1.900759448E-01
 7.362340687E-02 -1.000000000E-03 -6.648568559E-02 2.110283936E-03 1.899604804E-01
 7.563440144E-02 -1.000000000E-03 -6.663526065E-02 2.103158275E-03 1.896875753E-01
 7.715636613E-02 -1.000000000E-03 -6.674726937E-02 2.108618854E-03 1.894522153E-01
 7.873275484E-02 -1.000000000E-03 -6.686247066E-02 2.099220763E-03 1.892080240E-01
 8.076482515E-02 -1.000000000E-03 -6.700934200E-02 2.098894996E-03 1.889087240E-01
 8.175027606E-02 -1.000000000E-03 -6.708011343E-02 2.094213034E-03 1.888033618E-01
 8.451425304E-02 -1.000000000E-03 -6.727628974E-02 2.088242071E-03 1.886438564E-01
 8.487687906E-02 -1.000000000E-03 -6.730186850E-02 2.085012211E-03 1.886362831E-01
 8.716030769E-02 -1.000000000E-03 -6.746098291E-02 2.084880960E-03 1.885551611E-01
 8.807941509E-02 -1.000000000E-03 -6.752506907E-02 2.079724434E-03 1.885262619E-01
 8.822751554E-02 -1.000000000E-03 -6.753527306E-02 2.079405971E-03 1.885132475E-01
 9.134546603E-02 -1.000000000E-03 -6.774862203E-02 2.062679988E-03 1.881350880E-01
 9.185483651E-02 -1.000000000E-03 -6.778307627E-02 2.062215628E-03 1.880639983E-01
 9.464616798E-02 -1.000000000E-03 -6.797046999E-02 2.055300476E-03 1.876003992E-01
 -7.111150324E-02 -1.000000000E-03 -5.031380097E-02 2.609894910E-03 2.405511941E-01
 -6.928321576E-02 -1.000000000E-03 -5.060321084E-02 2.596726130E-03 2.391832244E-01
 -6.869111281E-02 -1.000000000E-03 -5.069621041E-02 2.596500042E-03 2.387854005E-01
 -6.708921988E-02 -1.000000000E-03 -5.094672462E-02 2.582900821E-03 2.377106474E-01
 -6.625566010E-02 -1.000000000E-03 -5.107607339E-02 2.584037815E-03 2.371808846E-01
 -6.487097911E-02 -1.000000000E-03 -5.128997880E-02 2.584459423E-03 2.363550852E-01
 -6.378232748E-02 -1.000000000E-03 -5.145686267E-02 2.584853413E-03 2.356278394E-01
 -6.264845022E-02 -1.000000000E-03 -5.162987590E-02 2.572688813E-03 2.348164213E-01
 -6.129179988E-02 -1.000000000E-03 -5.183529714E-02 2.575110477E-03 2.339359676E-01
 -6.045227725E-02 -1.000000000E-03 -5.196184947E-02 2.569582643E-03 2.334363394E-01
 -5.870096793E-02 -1.000000000E-03 -5.222375336E-02 2.567939128E-03 2.321685929E-01
 -5.823866281E-02 -1.000000000E-03 -5.229258725E-02 2.558018565E-03 2.318058041E-01
 -5.604323116E-02 -1.000000000E-03 -5.261682990E-02 2.554111632E-03 2.303192750E-01
 -5.592117699E-02 -1.000000000E-03 -5.263474697E-02 2.554929985E-03 2.302247682E-01
 -5.367927967E-02 -1.000000000E-03 -5.296181083E-02 2.538810412E-03 2.296445058E-01
 -5.366224449E-02 -1.000000000E-03 -5.296428080E-02 2.539261238E-03 2.296444771E-01
 -5.342849606E-02 -1.000000000E-03 -5.299797616E-02 2.539782977E-03 2.295688511E-01
 -5.149536355E-02 -1.000000000E-03 -5.327670791E-02 2.540371948E-03 2.289145314E-01
 -5.132800145E-02 -1.000000000E-03 -5.330066354E-02 2.541155440E-03 2.288274763E-01
 -4.929401491E-02 -1.000000000E-03 -5.359050798E-02 2.544375971E-03 2.272808481E-01
 -4.886349890E-02 -1.000000000E-03 -5.365137640E-02 2.543954542E-03 2.269924749E-01
 -4.694417791E-02 -1.000000000E-03 -5.392152843E-02 2.530327729E-03 2.256748664E-01
 -4.629253851E-02 -1.000000000E-03 -5.401251557E-02 2.526858056E-03 2.252989525E-01
 -4.459930846E-02 -1.000000000E-03 -5.424784611E-02 2.504020280E-03 2.243828533E-01
 -4.371479097E-02 -1.000000000E-03 -5.436979060E-02 2.502226954E-03 2.239404063E-01
 -4.222630888E-02 -1.000000000E-03 -5.457405826E-02 2.486238989E-03 2.231578238E-01
 -4.110406429E-02 -1.000000000E-03 -5.472680771E-02 2.484204635E-03 2.226112865E-01
 -3.983376452E-02 -1.000000000E-03 -5.489890950E-02 2.481597583E-03 2.220009838E-01
 -3.842326063E-02 -1.000000000E-03 -5.508843517E-02 2.482964934E-03 2.213125369E-01
 -3.748219878E-02 -1.000000000E-03 -5.521431309E-02 2.480634826E-03 2.209060908E-01
 -3.565171854E-02 -1.000000000E-03 -5.545707272E-02 2.481361493E-03 2.198991301E-01
 -3.510150176E-02 -1.000000000E-03 -5.552973628E-02 2.468090145E-03 2.195584609E-01
 -3.273799970E-02 -1.000000000E-03 -5.583905182E-02 2.456946641E-03 2.184084720E-01
 -3.258841543E-02 -1.000000000E-03 -5.585851336E-02 2.456266263E-03 2.183392473E-01
 -3.117266417E-02 -1.000000000E-03 -5.604130940E-02 2.454585316E-03 2.178795768E-01
 -3.006942319E-02 -1.000000000E-03 -5.618380148E-02 2.447465118E-03 2.175073923E-01
 -2.995872928E-02 -1.000000000E-03 -5.619799032E-02 2.447364163E-03 2.174589876E-01
 7.471460240E-01 -1.000000000E-03 -6.536680706E-02 1.048019052E-03 4.064929135E-01
 7.471119331E-01 -1.000000000E-03 -6.535877011E-02 1.017772231E-03 4.082116629E-01
 7.466863424E-01 -1.000000000E-03 -6.525843657E-02 4.437280221E-04 4.375481534E-01
 7.462499321E-01 -1.000000000E-03 -6.515557805E-02 4.626422570E-05 4.365305309E-01
 7.462311716E-01 -1.000000000E-03 -6.515115641E-02 3.446955836E-05 4.364873418E-01
 7.462006606E-01 -1.000000000E-03 -6.514396741E-02 2.958434928E-05 4.364561982E-01
 7.455737986E-01 -1.000000000E-03 -6.499627783E-02 -6.618978411E-05 4.359528845E-01
 7.457850670E-01 -1.000000000E-03 -6.504604345E-02 -4.891440595E-05 4.361433929E-01
 7.449137789E-01 -1.000000000E-03 -6.484085082E-02 -9.307754820E-05 4.353330385E-01
 7.453111261E-01 -1.000000000E-03 -6.493440901E-02 -7.993086032E-05 4.357218821E-01
 7.448026809E-01 -1.000000000E-03 -6.481469467E-02 -9.475492597E-05 4.352474127E-01
 7.444149590E-01 -1.000000000E-03 -6.472344980E-02 -1.006349553E-04 4.347950244E-01
 7.442526923E-01 -1.000000000E-03 -6.468526155E-02 -1.027785092E-04 4.346134199E-01
 7.442018891E-01 -1.000000000E-03 -6.467331011E-02 -1.027866499E-04 4.345545958E-01
 7.436763913E-01 -1.000000000E-03 -6.454970761E-02 -1.041708236E-04 4.339008339E-01
 7.434608986E-01 -1.000000000E-03 -6.449904169E-02 -1.034940772E-04 4.336635476E-01
 7.430588533E-01 -1.000000000E-03 -6.440453227E-02 -1.034035012E-04 4.332025222E-01
 7.427264840E-01 -1.000000000E-03 -6.432643194E-02 -1.009858463E-04 4.327827878E-01
 7.424177223E-01 -1.000000000E-03 -6.425389313E-02 -9.923425944E-05 4.324750208E-01
 7.419271304E-01 -1.000000000E-03 -6.413868929E-02 -9.703622025E-05 4.320221739E-01
 7.417858641E-01 -1.000000000E-03 -6.410551378E-02 -9.603930377E-05 4.319026998E-01
 7.416873158E-01 -1.000000000E-03 -6.408238117E-02 -9.542237174E-05 4.318022688E-01
 7.411036736E-01 -1.000000000E-03 -6.394540835E-02 -9.046798063E-05 4.311853149E-01
 7.408987663E-01 -1.000000000E-03 -6.389732966E-02 -8.976245206E-05 4.309547092E-01
 7.405162482E-01 -1.000000000E-03 -6.380762080E-02 -8.977516816E-05 4.305525144E-01
 7.400803634E-01 -1.000000000E-03 -6.370540081E-02 -8.779547416E-05 4.300750280E-01
 7.393724690E-01 -1.000000000E-03 -6.353949049E-02 -9.280105879E-05 4.293699102E-01
 7.385746218E-01 -1.000000000E-03 -6.335261084E-02 -9.225561968E-05 4.284707277E-01
 7.391750010E-01 -1.000000000E-03 -6.349323481E-02 -9.335575431E-05 4.291542103E-01
 7.393232431E-01 -1.000000000E-03 -6.352795539E-02 -9.276977544E-05 4.293227395E-01
 7.384148841E-01 -1.000000000E-03 -6.331521117E-02 -9.104036519E-05 4.283059001E-01
 7.377983436E-01 -1.000000000E-03 -6.317090455E-02 -8.384590272E-05 4.277357831E-01
 7.374642467E-01 -1.000000000E-03 -6.309273042E-02 -8.199912557E-05 4.274135100E-01
 7.369232325E-01 -1.000000000E-03 -6.296619618E-02 -8.518246270E-05 4.268736065E-01
 7.367542825E-01 -1.000000000E-03 -6.292668901E-02 -8.516873846E-05 4.267137983E-01
 7.361800561E-01 -1.000000000E-03 -6.279247568E-02 -7.863811857E-05 4.261144882E-01
 7.358316358E-01 -1.000000000E-03 -6.271105261E-02 -7.608018158E-05 4.256775864E-01
 7.350959957E-01 -1.000000000E-03 -6.253925868E-02 -7.676538140E-05 4.249512089E-01
 7.348187981E-01 -1.000000000E-03 -6.247453059E-02 -7.567478662E-05 4.246265009E-01
 7.343842229E-01 -1.000000000E-03 -6.237313362E-02 -7.604527154E-05 4.241191905E-01
 5.159308064E-01 -1.000000000E-03 -1.546460703E-02 6.858314555E-04 2.361567087E-01
 6.614699064E-01 -1.000000000E-03 -4.584804708E-02 2.737062036E-04 3.497754453E-01
 6.611040725E-01 -1.000000000E-03 -4.576748038E-02 2.752745425E-04 3.494453277E-01
 6.636638800E-01 -1.000000000E-03 -4.633164706E-02 2.644355494E-04 3.517736476E-01
 6.639513994E-01 -1.000000000E-03 -4.639508997E-02 2.630850018E-04 3.520387907E-01
 6.588099036E-01 -1.000000000E-03 -4.526279598E-02 2.841846333E-04 3.473856391E-01
 6.584214970E-01 -1.000000000E-03 -4.517743155E-02 2.858340687E-04 3.470350827E-01
 6.560665016E-01 -1.000000000E-03 -4.466042868E-02 3.003048109E-04 3.449552421E-01
 6.557398235E-01 -1.000000000E-03 -4.458878176E-02 3.013968199E-04 3.446583779E-01
 6.535391096E-01 -1.000000000E-03 -4.410658405E-02 3.032680385E-04 3.426075697E-01
 6.535265322E-01 -1.000000000E-03 -4.410383203E-02 3.033652796E-04 3.425962091E-01
 6.489103305E-01 -1.000000000E-03 -4.309505236E-02 3.125535481E-04 3.384578299E-01
 6.499257778E-01 -1.000000000E-03 -4.331670742E-02 3.120880838E-04 3.393459081E-01
 6.466506932E-01 -1.000000000E-03 -4.260253433E-02 3.235805684E-04 3.365413901E-01
 6.458161512E-01 -1.000000000E-03 -4.242083101E-02 3.262408731E-04 3.358171937E-01
 6.516168548E-01 -1.000000000E-03 -4.368607277E-02 3.088378169E-04 3.407997201E-01
 6.433335056E-01 -1.000000000E-03 -4.188099956E-02 3.355603305E-04 3.336392414E-01
 6.424302001E-01 -1.000000000E-03 -4.168484192E-02 3.388835509E-04 3.328546892E-01
 6.393777687E-01 -1.000000000E-03 -4.102293254E-02 3.485260453E-04 3.302321310E-01
 6.383879631E-01 -1.000000000E-03 -4.080862901E-02 3.521957230E-04 3.293778486E-01
 6.346978357E-01 -1.000000000E-03 -4.001106530E-02 3.641843502E-04 3.262893444E-01
 6.090745195E-01 -1.000000000E-03 -3.453275660E-02 4.412522287E-04 3.054423613E-01
 6.105624346E-01 -1.000000000E-03 -3.484801682E-02 4.370674858E-04 3.066143006E-01
 6.051997966E-01 -1.000000000E-03 -3.371327082E-02 4.446207459E-04 3.023506960E-01
 6.035623126E-01 -1.000000000E-03 -3.336775082E-02 4.505645943E-04 3.010607429E-01
 6.144942164E-01 -1.000000000E-03 -3.568285252E-02 4.256061803E-04 3.097912116E-01
 6.164340576E-01 -1.000000000E-03 -3.609575100E-02 4.252511271E-04 3.113290045E-01
 6.335840022E-01 -1.000000000E-03 -3.977074887E-02 3.674733030E-04 3.253646874E-01
 6.293389564E-01 -1.000000000E-03 -3.885668442E-02 3.918908516E-04 3.217420232E-01
 6.283471851E-01 -1.000000000E-03 -3.864357741E-02 3.969333220E-04 3.209206592E-01
 5.996011406E-01 -1.000000000E-03 -3.253336193E-02 4.550533670E-04 2.979309364E-01
 6.236161931E-01 -1.000000000E-03 -3.762898485E-02 4.020045099E-04 3.170742579E-01
 6.199225979E-01 -1.000000000E-03 -3.683932686E-02 4.200454307E-04 3.140203157E-01
 5.976032871E-01 -1.000000000E-03 -3.211363659E-02 4.588701204E-04 2.963791677E-01
 6.238823305E-01 -1.000000000E-03 -3.768590227E-02 4.005888108E-04 3.172936790E-01
 5.930584473E-01 -1.000000000E-03 -3.116067411E-02 4.818282843E-04 2.929000498E-01
 5.906933770E-01 -1.000000000E-03 -3.066620297E-02 4.884243406E-04 2.910899962E-01
 5.854698312E-01 -1.000000000E-03 -2.957676009E-02 5.021693340E-04 2.870845731E-01
 5.831088254E-01 -1.000000000E-03 -2.908585810E-02 5.083023580E-04 2.852687756E-01
 5.222926208E-01 -1.000000000E-03 -1.672585189E-02 6.776125972E-04 2.407189798E-01
 5.237191217E-01 -1.000000000E-03 -1.700941525E-02 6.732106315E-04 2.417430831E-01
 5.304557810E-01 -1.000000000E-03 -1.835290738E-02 6.593207556E-04 2.465879424E-01
 5.317021312E-01 -1.000000000E-03 -1.860214248E-02 6.563427565E-04 2.474861439E-01
 5.388582837E-01 -1.000000000E-03 -2.003798217E-02 6.311379085E-04 2.526839448E-01
 5.399808364E-01 -1.000000000E-03 -2.026382757E-02 6.284823779E-04 2.535005521E-01
 5.473852252E-01 -1.000000000E-03 -2.175868974E-02 6.173281625E-04 2.588762618E-01
 5.483444430E-01 -1.000000000E-03 -2.195287782E-02 6.139850263E-04 2.595725574E-01
 5.561946931E-01 -1.000000000E-03 -2.354773805E-02 6.047744282E-04 2.652859120E-01
 5.568805745E-01 -1.000000000E-03 -2.368748334E-02 6.035200059E-04 2.657873330E-01
 5.654189544E-01 -1.000000000E-03 -2.543352906E-02 5.708230283E-04 2.720862342E-01
 5.662825298E-01 -1.000000000E-03 -2.561066881E-02 5.666910976E-04 2.727317504E-01
 5.761238836E-01 -1.000000000E-03 -2.763801035E-02 5.362824079E-04 2.800384060E-01
 5.745273086E-01 -1.000000000E-03 -2.730819869E-02 5.417315993E-04 2.788632609E-01
 7.471460240E-01 -1.000000000E-03 -6.536680706E-02 1.048019052E-03 4.064929135E-01
 7.471101324E-01 -1.000000000E-03 -6.536885489E-02 1.021661946E-03 4.082178515E-01
 7.466620452E-01 -1.000000000E-03 -6.539442121E-02 5.290269017E-04 4.389824925E-01
 7.461799676E-01 -1.000000000E-03 -6.542190064E-02 1.200149712E-04 4.360557179E-01
 7.461519241E-01 -1.000000000E-03 -6.542349913E-02 1.033585237E-04 4.359413357E-01
 7.461122216E-01 -1.000000000E-03 -6.542575913E-02 1.005102683E-04 4.358587775E-01
 7.455973381E-01 -1.000000000E-03 -6.545506918E-02 5.356071314E-05 4.346617062E-01
 7.451405690E-01 -1.000000000E-03 -6.548102311E-02 5.836973984E-05 4.338583688E-01
 7.449793383E-01 -1.000000000E-03 -6.549018368E-02 5.940946854E-05 4.336129086E-01
 7.446734630E-01 -1.000000000E-03 -6.550752042E-02 6.496120454E-05 4.330446522E-01
 7.442617290E-01 -1.000000000E-03 -6.553085933E-02 7.313645191E-05 4.323231486E-01
 7.440176316E-01 -1.000000000E-03 -6.554466181E-02 7.939746445E-05 4.318367557E-01
 7.434921033E-01 -1.000000000E-03 -6.557436804E-02 9.179655157E-05 4.308126928E-01
 7.429249165E-01 -1.000000000E-03 -6.560635289E-02 1.065280307E-04 4.298719176E-01
 7.427367437E-01 -1.000000000E-03 -6.561695762E-02 1.113445261E-04 4.295977243E-01
 7.419664860E-01 -1.000000000E-03 -6.566027500E-02 1.246170917E-04 4.284471595E-01
 7.415974390E-01 -1.000000000E-03 -6.568098625E-02 1.313518644E-04 4.277889176E-01
 7.407427416E-01 -1.000000000E-03 -6.572888712E-02 1.453482400E-04 4.263698729E-01
 7.401137833E-01 -1.000000000E-03 -6.576404117E-02 1.604982551E-04 4.254244334E-01
 7.397078339E-01 -1.000000000E-03 -6.578670070E-02 1.672586510E-04 4.248249164E-01
 7.389189058E-01 -1.000000000E-03 -6.583065009E-02 1.746279232E-04 4.238117729E-01
 7.382187922E-01 -1.000000000E-03 -6.586955612E-02 1.786077415E-04 4.227130897E-01
 7.374926317E-01 -1.000000000E-03 -6.590980949E-02 1.862979641E-04 4.212417747E-01
 7.369302043E-01 -1.000000000E-03 -6.594094831E-02 1.965611453E-04 4.201619833E-01
 7.352820186E-01 -1.000000000E-03 -6.603180863E-02 2.179829708E-04 4.179563403E-01
 7.352365080E-01 -1.000000000E-03 -6.603431840E-02 2.185388669E-04 4.178926839E-01