TITLE     = "Surface mesh and solution"
VARIABLES = "x"
"y"
"z"
"cfx"
"Cp"
ZONE T="Slice: Y=-0.001"
STRANDID=0, SOLUTIONTIME=0
Nodes=219, Elements=218, ZONETYPE=FELineSeg
DATAPACKING=POINT
DT=(DOUBLE DOUBLE DOUBLE DOUBLE DOUBLE )
0.1827044000	-0.0009999500	0.0410374140	0.0022366620	-0.0250682010
0.1913204500	-0.0009999500	0.0398680680	0.0021994404	-0.0173053130
0.2137894600	-0.0009999500	0.0367412940	0.0020849625	0.0030050634
0.2230526100	-0.0009999500	0.0354054720	0.0020475938	0.0112129220
0.2476449800	-0.0009999500	0.0317768160	0.0019325930	0.0324281900
0.2577575100	-0.0009999500	0.0302353430	0.0018923294	0.0410348360
0.2841571600	-0.0009999500	0.0261247740	0.0017733692	0.0629267250
0.2950834300	-0.0009999500	0.0243716130	0.0017322359	0.0719796940
0.3212350600	-0.0009999500	0.0201000240	0.0016135777	0.0947531610
0.3335552200	-0.0009999500	0.0180262570	0.0015688348	0.1045807400
0.3663217700	-0.0009999500	0.0124164360	0.0014521032	0.1296053400
0.3800869600	-0.0009999500	0.0099901091	0.0014059756	0.1402533400
0.4162242700	-0.0009999500	0.0035024725	0.0012969845	0.1670588100
0.4313677300	-0.0009999500	0.0007113180	0.0012467608	0.1782450200
0.4714317000	-0.0009999500	-0.0068210340	0.0011341328	0.2072343100
0.4875011700	-0.0009999500	-0.0099173179	0.0010800950	0.2187744800
0.5348708600	-0.0009999500	-0.0192490390	0.0009610570	0.2498577400
0.5511527700	-0.0009999500	-0.0225300860	0.0009100457	0.2614767000
0.5903646300	-0.0009999500	-0.0306015160	0.0007774121	0.2891632900
0.6026916500	-0.0009999500	-0.0331849200	0.0007058988	0.2991029600
0.6241120700	-0.0009999500	-0.0377463330	0.0006131263	0.3151246600
0.6347060800	-0.0009999500	-0.0400149670	0.0005779252	0.3231593100
0.6487884500	-0.0009999500	-0.0430820400	0.0005233526	0.3357919200
0.6564483000	-0.0009999500	-0.0447513760	0.0004922878	0.3421902700
0.6655888000	-0.0009999500	-0.0467695440	0.0004583837	0.3514709800
0.6706393400	-0.0009999500	-0.0478853250	0.0004366139	0.3559931800
0.6784878400	-0.0009999500	-0.0496349300	0.0004115759	0.3635638700
0.6821476200	-0.0009999500	-0.0504518080	0.0003970162	0.3669982900
0.6878941700	-0.0009999500	-0.0517422630	0.0003746645	0.3732963500
0.6906039100	-0.0009999500	-0.0523518440	0.0003618480	0.3759406800
0.6957069600	-0.0009999500	-0.0535042580	0.0003387048	0.3814657000
0.6980227800	-0.0009999500	-0.0540285000	0.0003260949	0.3837937100
0.7037103800	-0.0009999500	-0.0553200430	0.0003037718	0.3894452800
0.7059454300	-0.0009999500	-0.0558292010	0.0002911244	0.3917063800
0.7115819500	-0.0009999500	-0.0571165720	0.0002615201	0.3975277200
0.7138193800	-0.0009999500	-0.0576296780	0.0002486992	0.3997712700
0.7200360300	-0.0009999500	-0.0590581040	0.0002206295	0.4060246100
0.7219877200	-0.0009999500	-0.0595088750	0.0002105214	0.4080416000
0.7286840700	-0.0009999500	-0.0610572400	0.0001827447	0.4150663600
0.7300416800	-0.0009999500	-0.0613729430	0.0001786313	0.4164951700
0.7307962200	-0.0009999500	-0.0615484490	0.0001719708	0.4172852000
0.7324587700	-0.0009999500	-0.0619348810	0.0001435607	0.4188041700
0.7375392300	-0.0009999500	-0.0631164390	0.0000743473	0.4233096200
0.7415227900	-0.0009999500	-0.0640471730	0.0001441529	0.4271678300
0.7431134600	-0.0009999500	-0.0644206780	0.0001748987	0.4288705900
0.7441456300	-0.0009999500	-0.0646633800	0.0002637309	0.4292141200
0.7471460100	-0.0009999500	-0.0653668050	0.0004268163	0.4319206500
0.7440666000	-0.0009999500	-0.0655386750	0.0005334870	0.4255882500
0.7429509200	-0.0009999500	-0.0656016620	0.0005465314	0.4241756800
0.7413265700	-0.0009999500	-0.0656925890	0.0005361581	0.4215448800
0.7365883600	-0.0009999500	-0.0659532030	0.0004837325	0.4133167300
0.7339652200	-0.0009999500	-0.0660976020	0.0005021638	0.4098509000
0.7278778000	-0.0009999500	-0.0664246600	0.0005483545	0.4020040000
0.7246790500	-0.0009999500	-0.0665937290	0.0005892426	0.3977845900
0.7159188400	-0.0009999500	-0.0670489450	0.0006785860	0.3876625300
0.7116987700	-0.0009999500	-0.0672640130	0.0007174216	0.3830866500
0.6996952900	-0.0009999500	-0.0678607230	0.0008015486	0.3708502700
0.6947395800	-0.0009999500	-0.0680997740	0.0008396165	0.3661715100
0.6790629600	-0.0009999500	-0.0688339320	0.0009233819	0.3524574900
0.6722888900	-0.0009999500	-0.0691353830	0.0009639184	0.3473561700
0.6503053900	-0.0009999500	-0.0700800870	0.0010911350	0.3315865700
0.6412051300	-0.0009999500	-0.0704393830	0.0011362790	0.3259557200
0.6068336400	-0.0009999500	-0.0717189390	0.0012997556	0.3067822800
0.5945163400	-0.0009999500	-0.0721230800	0.0013486230	0.3005943300
0.5431795700	-0.0009999500	-0.0736088980	0.0015065338	0.2793691200
0.5288310600	-0.0009999500	-0.0739542620	0.0015505045	0.2734339200
0.4847861200	-0.0009999500	-0.0748426020	0.0016866795	0.2564270500
0.4704494200	-0.0009999500	-0.0750697030	0.0017257838	0.2513488200
0.4296016400	-0.0009999500	-0.0755700620	0.0018178966	0.2376849900
0.4153754700	-0.0009999500	-0.0756801070	0.0018509271	0.2332501300
0.3779010200	-0.0009999500	-0.0758426490	0.0019245162	0.2218984200
0.3651450900	-0.0009999500	-0.0758456810	0.0019443005	0.2185378800
0.3339823800	-0.0009999500	-0.0757326190	0.0019152207	0.2117955400
0.3223522600	-0.0009999500	-0.0756644980	0.0019439834	0.2090659100
0.2978354700	-0.0009999500	-0.0753965750	0.0020840797	0.2037508600
0.2867549400	-0.0009999500	-0.0752562430	0.0021168443	0.2014914900
0.2622270600	-0.0009999500	-0.0748237670	0.0022573665	0.1970739200
0.2514454100	-0.0009999500	-0.0746044960	0.0022825232	0.1953869900
0.2253759800	-0.0009999500	-0.0739470420	0.0023747392	0.1920707500
0.2150695200	-0.0009999500	-0.0736531470	0.0023951662	0.1908728600
0.1907038200	-0.0009999500	-0.0728315710	0.0024726415	0.1887165600
0.1810985100	-0.0009999500	-0.0724739510	0.0024900863	0.1880216300
0.1582001900	-0.0009999500	-0.0714992510	0.0025553479	0.1870303800
0.1493350000	-0.0009999500	-0.0710886340	0.0025675843	0.1868042300
0.1278917800	-0.0009999500	-0.0699787140	0.0026207912	0.1868757600
0.1195875800	-0.0009999500	-0.0695151910	0.0026292193	0.1870616800
0.0994007510	-0.0009999500	-0.0682737530	0.0026724074	0.1881233200
0.0916685540	-0.0009999500	-0.0677665470	0.0026791186	0.1887090500
0.0731632260	-0.0009999500	-0.0664418640	0.0027162754	0.1907352100
0.0658681690	-0.0009999500	-0.0658892470	0.0027209185	0.1916685000
0.0481724290	-0.0009999500	-0.0644379780	0.0027486321	0.1945358800
0.0413559040	-0.0009999500	-0.0638491440	0.0027524878	0.1958017100
0.0247335690	-0.0009999500	-0.0623026640	0.0027734412	0.1995515800
0.0183491520	-0.0009999500	-0.0616792960	0.0027787585	0.2011950200
0.0026822260	-0.0009999500	-0.0600423850	0.0028030289	0.2058952700
-0.0033306035	-0.0009999500	-0.0593843910	0.0028094601	0.2079039400
-0.0180291920	-0.0009999500	-0.0576739200	0.0028341486	0.2135216100
-0.0237557780	-0.0009999500	-0.0569763560	0.0028431581	0.2159017600
-0.0376635340	-0.0009999500	-0.0551825800	0.0028655548	0.2223089600
-0.0429679640	-0.0009999500	-0.0544683860	0.0028780313	0.2250294200
-0.0559566210	-0.0009999500	-0.0526211970	0.0029065515	0.2323962300
-0.0608025300	-0.0009999500	-0.0519057510	0.0029240135	0.2354334400
-0.0732469410	-0.0009999500	-0.0499628600	0.0029628938	0.2440315900
-0.0778453720	-0.0009999500	-0.0492210840	0.0029794353	0.2475821700
-0.0900249260	-0.0009999500	-0.0471352820	0.0030236324	0.2579699800
-0.0944905800	-0.0009999500	-0.0463473460	0.0030385468	0.2619685800
-0.1062477500	-0.0009999500	-0.0441420560	0.0030910015	0.2741531700
-0.1102057100	-0.0009999500	-0.0433777680	0.0031008489	0.2783760700
-0.1227226100	-0.0009999500	-0.0408045910	0.0031624091	0.2943262200
-0.1261304300	-0.0009999500	-0.0400755850	0.0031625089	0.2988995900
-0.1382276900	-0.0009999500	-0.0373419560	0.0031863963	0.3173667500
-0.1411998300	-0.0009999500	-0.0366404130	0.0031838955	0.3221581000
-0.1532018900	-0.0009999500	-0.0336459990	0.0031861584	0.3433865300
-0.1558631200	-0.0009999500	-0.0329573970	0.0031800630	0.3485518100
-0.1670475600	-0.0009999500	-0.0298580360	0.0031616964	0.3745282600
-0.1690618200	-0.0009999500	-0.0292928200	0.0031669668	0.3792537700
-0.1710591000	-0.0009999500	-0.0286897160	0.0031532338	0.3848637600
-0.1805929800	-0.0009999500	-0.0257585610	0.0031784937	0.4145298900
-0.1829069400	-0.0009999500	-0.0249999610	0.0031636893	0.4222496400
-0.1907165200	-0.0009999500	-0.0223452580	0.0031263623	0.4518292500
-0.1930067700	-0.0009999500	-0.0215206480	0.0031020857	0.4610995400
-0.2001898600	-0.0009999500	-0.0188256710	0.0030486985	0.4935316700
-0.2022488100	-0.0009999500	-0.0180085470	0.0030122527	0.5042365200
-0.2080490900	-0.0009999500	-0.0156011610	0.0029254047	0.5385557400
-0.2099375300	-0.0009999500	-0.0147759810	0.0028821488	0.5504832300
-0.2150065300	-0.0009999500	-0.0124513770	0.0027665958	0.5860310800
-0.2166818100	-0.0009999500	-0.0116465120	0.0027195866	0.5989600400
-0.2206203000	-0.0009999500	-0.0096490514	0.0025820750	0.6351681400
-0.2221641400	-0.0009999500	-0.0088327937	0.0025306359	0.6494212700
-0.2257587300	-0.0009999500	-0.0068169255	0.0023603537	0.6884988500
-0.2271574000	-0.0009999500	-0.0059956876	0.0022995118	0.7039080900
-0.2304549400	-0.0009999500	-0.0039304155	0.0020770525	0.7467377200
-0.2317002400	-0.0009999500	-0.0031081580	0.0020015304	0.7629445800
-0.2347477700	-0.0009999500	-0.0009465857	0.0017334483	0.8095404500
-0.2358166000	-0.0009999500	-0.0001351383	0.0016524514	0.8258548400
-0.2386155100	-0.0009999500	0.0021614945	0.0013155955	0.8737645700
-0.2395552100	-0.0009999500	0.0030033707	0.0012199334	0.8891522900
-0.2420276900	-0.0009999500	0.0054314607	0.0007745052	0.9314878600
-0.2428370400	-0.0009999500	0.0063279998	0.0006422716	0.9437741600
-0.2449867000	-0.0009999500	0.0090002520	0.0000836729	0.9645746400
-0.2456501900	-0.0009999500	0.0099921310	-0.0000923299	0.9651527400
-0.2473147700	-0.0009999500	0.0129115170	-0.0005996941	0.9411584100
-0.2477574200	-0.0009999500	0.0140068410	-0.0006807343	0.9146325000
-0.2487638400	-0.0009999500	0.0171677150	-0.0007439263	0.8131980300
-0.2488784500	-0.0009999500	0.0186146700	-0.0004182745	0.7320284800
-0.2490418100	-0.0009999500	0.0218598190	0.0004111821	0.5691795900
-0.2483169300	-0.0009999500	0.0250268840	0.0021466310	0.3550128000
-0.2478883000	-0.0009999500	0.0264528300	0.0028761755	0.2466563400
-0.2464134500	-0.0009999500	0.0292761770	0.0045656983	0.0456395370
-0.2457055400	-0.0009999500	0.0303478200	0.0051169932	-0.0272022320
-0.2436639200	-0.0009999500	0.0328178630	0.0061893769	-0.1610040800
-0.2427749600	-0.0009999500	0.0337221620	0.0064612829	-0.1980028500
-0.2403191500	-0.0009999500	0.0358847230	0.0070016004	-0.2758126000
-0.2392943900	-0.0009999500	0.0366746900	0.0071011885	-0.2941639700
-0.2365267000	-0.0009999500	0.0385866540	0.0072991099	-0.3390630500
-0.2353862400	-0.0009999500	0.0392912920	0.0072928452	-0.3483617600
-0.2322964500	-0.0009999500	0.0410384350	0.0072993089	-0.3758195600
-0.2310543100	-0.0009999500	0.0416761930	0.0072504350	-0.3805298500
-0.2277013700	-0.0009999500	0.0432683450	0.0071427859	-0.3975563000
-0.2263593400	-0.0009999500	0.0438527240	0.0070741380	-0.3993844100
-0.2226542400	-0.0009999500	0.0453531070	0.0069096482	-0.4090684100
-0.2212142600	-0.0009999500	0.0458927640	0.0068412440	-0.4090871500
-0.2169692100	-0.0009999500	0.0473685530	0.0066345328	-0.4140605900
-0.2154506400	-0.0009999500	0.0478617770	0.0065776602	-0.4127000300
-0.2107205200	-0.0009999500	0.0492765160	0.0063676088	-0.4132901400
-0.2092037600	-0.0009999500	0.0497063400	0.0063270659	-0.4114585800
-0.2038255800	-0.0009999500	0.0510907020	0.0059916105	-0.4105045200
-0.2024953700	-0.0009999500	0.0514224800	0.0059788849	-0.4089348900
-0.2010605000	-0.0009999500	0.0517472590	0.0058567736	-0.4078247200
-0.1962320200	-0.0009999500	0.0528226610	0.0057262324	-0.4021419600
-0.1946855200	-0.0009999500	0.0531413110	0.0057174108	-0.3995521100
-0.1886421100	-0.0009999500	0.0543012840	0.0054474980	-0.3944847900
-0.1871261700	-0.0009999500	0.0545803570	0.0054336110	-0.3923072500
-0.1855218900	-0.0009999500	0.0548475530	0.0053474446	-0.3904222500
-0.1795910100	-0.0009999500	0.0558242950	0.0052332385	-0.3826268300
-0.1778428700	-0.0009999500	0.0560854380	0.0052257745	-0.3801222700
-0.1700156300	-0.0009999500	0.0571704470	0.0050035394	-0.3723230400
-0.1682646000	-0.0009999500	0.0574001150	0.0049934331	-0.3700654500
-0.1663067000	-0.0009999500	0.0576284640	0.0049185354	-0.3678371600
-0.1588858100	-0.0009999500	0.0584732410	0.0048027487	-0.3588788200
-0.1567014300	-0.0009999500	0.0586974210	0.0047867835	-0.3560703100
-0.1483092300	-0.0009999500	0.0594693530	0.0046052304	-0.3474224800
-0.1460809100	-0.0009999500	0.0596644470	0.0045926455	-0.3448537000
-0.1436589100	-0.0009999500	0.0598459690	0.0044907376	-0.3422663500
-0.1360340100	-0.0009999500	0.0603954270	0.0043920978	-0.3333918200
-0.1331673900	-0.0009999500	0.0605763230	0.0043802439	-0.3301327800
-0.1245741500	-0.0009999500	0.0610432620	0.0042940061	-0.3212452500
-0.1215243900	-0.0009999500	0.0611926910	0.0042734105	-0.3178123200
-0.1119837200	-0.0009999500	0.0615568530	0.0041843500	-0.3081057400
-0.1088638300	-0.0009999500	0.0616611990	0.0041596525	-0.3048200000
-0.0984019190	-0.0009999500	0.0619023410	0.0040438454	-0.2942226200
-0.0950797130	-0.0009999500	0.0619575120	0.0039911512	-0.2910444400
-0.0849285270	-0.0009999500	0.0620501120	0.0038882378	-0.2806021300
-0.0812749790	-0.0009999500	0.0620584640	0.0038490523	-0.2769670800
-0.0705801840	-0.0009999500	0.0620142370	0.0037628236	-0.2665086100
-0.0665123240	-0.0009999500	0.0619695480	0.0037310740	-0.2624718800
-0.0556444670	-0.0009999500	0.0617864880	0.0036515231	-0.2515298400
-0.0512841940	-0.0009999500	0.0616832080	0.0036243336	-0.2471489900
-0.0396638770	-0.0009999500	0.0613469560	0.0035472846	-0.2356639100
-0.0350547580	-0.0009999500	0.0611826780	0.0035259445	-0.2310860000
-0.0230017830	-0.0009999500	0.0606932900	0.0034480099	-0.2193227000
-0.0181878150	-0.0009999500	0.0604667440	0.0034275516	-0.2145859000
-0.0053785960	-0.0009999500	0.0598021890	0.0033378762	-0.2021737800
-0.0002474738	-0.0009999500	0.0595040540	0.0033146156	-0.1971808700
0.0135620490	-0.0009999500	0.0586363450	0.0032219511	-0.1839458200
0.0189850030	-0.0009999500	0.0582626830	0.0031992745	-0.1786526400
0.0334510730	-0.0009999500	0.0572009090	0.0031058313	-0.1647383600
0.0392809700	-0.0009999500	0.0567380750	0.0030782397	-0.1591620100
0.0546756130	-0.0009999500	0.0554496240	0.0029629158	-0.1444570400
0.0607956160	-0.0009999500	0.0549016890	0.0029286585	-0.1385566100
0.0768622610	-0.0009999500	0.0533972870	0.0028199418	-0.1230969100
0.0833963900	-0.0009999500	0.0527487470	0.0027881360	-0.1169099300
0.1009198900	-0.0009999500	0.0509396230	0.0026800303	-0.1007209400
0.1078230800	-0.0009999500	0.0501890150	0.0026473344	-0.0942604320
0.1262299300	-0.0009999500	0.0481155550	0.0025361184	-0.0770509320
0.1336875300	-0.0009999500	0.0472357500	0.0025009453	-0.0701207970
0.1535135200	-0.0009999500	0.0448213440	0.0023873789	-0.0517309460
0.1614853000	-0.0009999500	0.0438089670	0.0023515820	-0.0443554560
0.1827044000	-0.0009999500	0.0410374140	0.0022366620	-0.0250682010
1 2 
2 3 
3 4 
4 5 
5 6 
6 7 
7 8 
8 9 
9 10 
10 11 
11 12 
12 13 
13 14 
14 15 
15 16 
16 17 
17 18 
18 19 
19 20 
20 21 
21 22 
22 23 
23 24 
24 25 
25 26 
26 27 
27 28 
28 29 
29 30 
30 31 
31 32 
32 33 
33 34 
34 35 
35 36 
36 37 
37 38 
38 39 
39 40 
40 41 
41 42 
42 43 
43 44 
44 45 
45 46 
46 47 
47 48 
48 49 
49 50 
50 51 
51 52 
52 53 
53 54 
54 55 
55 56 
56 57 
57 58 
58 59 
59 60 
60 61 
61 62 
62 63 
63 64 
64 65 
65 66 
66 67 
67 68 
68 69 
69 70 
70 71 
71 72 
72 73 
73 74 
74 75 
75 76 
76 77 
77 78 
78 79 
79 80 
80 81 
81 82 
82 83 
83 84 
84 85 
85 86 
86 87 
87 88 
88 89 
89 90 
90 91 
91 92 
92 93 
93 94 
94 95 
95 96 
96 97 
97 98 
98 99 
99 100 
100 101 
101 102 
102 103 
103 104 
104 105 
105 106 
106 107 
107 108 
108 109 
109 110 
110 111 
111 112 
112 113 
113 114 
114 115 
115 116 
116 117 
117 118 
118 119 
119 120 
120 121 
121 122 
122 123 
123 124 
124 125 
125 126 
126 127 
127 128 
128 129 
129 130 
130 131 
131 132 
132 133 
133 134 
134 135 
135 136 
136 137 
137 138 
138 139 
139 140 
140 141 
141 142 
142 143 
143 144 
144 145 
145 146 
146 147 
147 148 
148 149 
149 150 
150 151 
151 152 
152 153 
153 154 
154 155 
155 156 
156 157 
157 158 
158 159 
159 160 
160 161 
161 162 
162 163 
163 164 
164 165 
165 166 
166 167 
167 168 
168 169 
169 170 
170 171 
171 172 
172 173 
173 174 
174 175 
175 176 
176 177 
177 178 
178 179 
179 180 
180 181 
181 182 
182 183 
183 184 
184 185 
185 186 
186 187 
187 188 
188 189 
189 190 
190 191 
191 192 
192 193 
193 194 
194 195 
195 196 
196 197 
197 198 
198 199 
199 200 
200 201 
201 202 
202 203 
203 204 
204 205 
205 206 
206 207 
207 208 
208 209 
209 210 
210 211 
211 212 
212 213 
213 214 
214 215 
215 216 
216 217 
217 218 
218 219 
ZONE T="Slice: Y=-0.035"
STRANDID=0, SOLUTIONTIME=0
Nodes=171, Elements=170, ZONETYPE=FELineSeg
DATAPACKING=POINT
DT=(DOUBLE DOUBLE DOUBLE DOUBLE DOUBLE )
0.1542070100	-0.0349999520	0.0447367090	0.0029882743	-0.0554796230
0.1616302300	-0.0349999520	0.0437579860	0.0029557290	-0.0487259920
0.1923673000	-0.0349999520	0.0397281650	0.0028159053	-0.0207097340
0.2003485300	-0.0349999520	0.0386259220	0.0027777930	-0.0135642000
0.2312627000	-0.0349999520	0.0342070200	0.0026328108	0.0140626880
0.2404871000	-0.0349999520	0.0328494500	0.0025848589	0.0221700170
0.2686514900	-0.0349999520	0.0285610500	0.0024422596	0.0462642500
0.2730160400	-0.0349999520	0.0278816990	0.0024192559	0.0499529210
0.3014579400	-0.0349999520	0.0233431380	0.0022576242	0.0732942520
0.3148494400	-0.0349999520	0.0211499260	0.0021888746	0.0841354880
0.3457424000	-0.0349999520	0.0159579290	0.0020449253	0.1092504600
0.3639848800	-0.0349999520	0.0128210650	0.0019600706	0.1237285900
0.3966934700	-0.0349999520	0.0070264474	0.0018251922	0.1489313400
0.4138833600	-0.0349999520	0.0039328667	0.0017537238	0.1620916400
0.4562647300	-0.0349999520	-0.0039523542	0.0015911504	0.1932268400
0.4677876500	-0.0349999520	-0.0061156717	0.0015473923	0.2015048700
0.4966035800	-0.0349999520	-0.0117475440	0.0014425368	0.2219961600
0.5284735000	-0.0349999520	-0.0179591610	0.0013185051	0.2447013400
0.5403859000	-0.0349999520	-0.0203714610	0.0012773083	0.2534135900
0.5903095000	-0.0349999520	-0.0305889380	0.0010973119	0.2889256200
0.6073450400	-0.0349999520	-0.0341897830	0.0010295570	0.3021136800
0.6298653500	-0.0349999520	-0.0389699000	0.0009462977	0.3205733300
0.6529825300	-0.0349999520	-0.0439999960	0.0008269153	0.3395727900
0.6613432800	-0.0349999520	-0.0458203700	0.0007871532	0.3465252500
0.6851118800	-0.0349999520	-0.0511029550	0.0006571063	0.3696883900
0.6854863800	-0.0349999520	-0.0511866700	0.0006547608	0.3700754600
0.7070305900	-0.0349999520	-0.0560622250	0.0005192038	0.3915887200
0.7103422300	-0.0349999520	-0.0568198790	0.0004970842	0.3949368600
0.7231098400	-0.0349999520	-0.0597552210	0.0003954457	0.4092547300
0.7257975900	-0.0349999520	-0.0603768420	0.0003697179	0.4126529700
0.7295119800	-0.0349999520	-0.0612423380	0.0003485005	0.4169728800
0.7373827100	-0.0349999520	-0.0630737690	0.0003102177	0.4260377600
0.7408242200	-0.0349999520	-0.0638805780	0.0003778588	0.4296859800
0.7448318600	-0.0349999520	-0.0648218170	0.0005854464	0.4328123600
0.7471460100	-0.0349999520	-0.0653668050	0.0010006563	0.4346735800
0.7445218600	-0.0349999520	-0.0655158310	0.0009827039	0.4305923300
0.7415313100	-0.0349999520	-0.0656843410	0.0010056189	0.4255471500
0.7359820600	-0.0349999520	-0.0659922960	0.0009833106	0.4152710700
0.7304636200	-0.0349999520	-0.0662942230	0.0010532189	0.4065926400
0.7254674400	-0.0349999520	-0.0665625930	0.0011218668	0.3984642600
0.7212508900	-0.0349999520	-0.0667827200	0.0011632499	0.3931087000
0.7136356200	-0.0349999520	-0.0671798440	0.0012321886	0.3848035600
0.7012596700	-0.0349999520	-0.0677950610	0.0013464380	0.3715286600
0.6889248500	-0.0349999520	-0.0683882240	0.0014521113	0.3597314700
0.6614884100	-0.0349999520	-0.0696146120	0.0016125155	0.3395810100
0.6475167900	-0.0349999520	-0.0701917480	0.0016971825	0.3298736200
0.6167635900	-0.0349999520	-0.0713624130	0.0018345689	0.3111972800
0.5830455400	-0.0349999520	-0.0724701580	0.0019502876	0.2947379400
0.5579208700	-0.0349999520	-0.0732189120	0.0020332941	0.2832180600
0.5028999400	-0.0349999520	-0.0745154320	0.0022126686	0.2608984400
0.5004734400	-0.0349999520	-0.0745657160	0.0022201748	0.2599538300
0.4951306000	-0.0349999520	-0.0746445580	0.0022356840	0.2580723200
0.4471279400	-0.0349999520	-0.0753879920	0.0023690714	0.2409137200
0.4305348700	-0.0349999520	-0.0755512420	0.0024100200	0.2356164500
0.3914818200	-0.0349999520	-0.0758066250	0.0025116564	0.2237612000
0.3620901100	-0.0349999520	-0.0758226290	0.0025872485	0.2157702100
0.3375652400	-0.0349999520	-0.0757603500	0.0026452163	0.2095445400
0.2876415300	-0.0349999520	-0.0752615180	0.0027549731	0.1989166300
0.2851044800	-0.0349999520	-0.0752335270	0.0027600100	0.1983792600
0.2832280700	-0.0349999520	-0.0751992460	0.0027630692	0.1980660300
0.2329903200	-0.0349999520	-0.0741616860	0.0028455822	0.1899320200
0.2306578200	-0.0349999520	-0.0740996380	0.0028478438	0.1896325200
0.2123925500	-0.0349999520	-0.0735110860	0.0028583805	0.1878556800
0.1868768900	-0.0349999520	-0.0726974230	0.0028714970	0.1853370700
0.1837757100	-0.0349999520	-0.0725746900	0.0028739877	0.1851106900
0.1450197200	-0.0349999520	-0.0708762030	0.0028838533	0.1834048800
0.1347877200	-0.0349999520	-0.0703435090	0.0028873762	0.1834851200
0.1069188500	-0.0349999520	-0.0687477440	0.0028889061	0.1843465600
0.0969192530	-0.0349999520	-0.0681099220	0.0028816621	0.1848922700
0.0687353760	-0.0349999520	-0.0660971630	0.0028652205	0.1876046400
0.0576251670	-0.0349999520	-0.0652194990	0.0028581206	0.1891126300
0.0260117040	-0.0349999520	-0.0624139200	0.0028768130	0.1954248700
0.0161822080	-0.0349999520	-0.0614490990	0.0028881065	0.1977497900
-0.0121178020	-0.0349999520	-0.0583745840	0.0029770654	0.2067332300
-0.0164163800	-0.0349999520	-0.0578638870	0.0029879392	0.2083805400
-0.0416467380	-0.0349999520	-0.0546484850	0.0030617909	0.2191203800
-0.0500991530	-0.0349999520	-0.0534308140	0.0030917020	0.2236429200
-0.0654808950	-0.0349999520	-0.0511945260	0.0031597404	0.2321115400
-0.0742969660	-0.0349999520	-0.0497879500	0.0031841273	0.2383294000
-0.0915899050	-0.0349999520	-0.0468493140	0.0032122292	0.2521158200
-0.0951125700	-0.0349999520	-0.0462374580	0.0032076316	0.2551158700
-0.0981010650	-0.0349999520	-0.0456661810	0.0032099730	0.2580863800
-0.1160449000	-0.0349999520	-0.0422027630	0.0032090353	0.2757718900
-0.1280509500	-0.0349999520	-0.0396255520	0.0031852572	0.2904927400
-0.1363901300	-0.0349999520	-0.0377605820	0.0031565414	0.3015752700
-0.1540074300	-0.0349999520	-0.0334134030	0.0031037203	0.3308594500
-0.1621426200	-0.0349999520	-0.0312189460	0.0030748518	0.3469616500
-0.1797456700	-0.0349999520	-0.0260050390	0.0030309651	0.3892831500
-0.1848762500	-0.0349999520	-0.0243195460	0.0030016594	0.4046677600
-0.1993687300	-0.0349999520	-0.0191205760	0.0028179545	0.4564604500
-0.2046276300	-0.0349999520	-0.0170034080	0.0027247751	0.4812651900
-0.2142476300	-0.0349999520	-0.0128019350	0.0025496011	0.5352215200
-0.2189957400	-0.0349999520	-0.0104598100	0.0024470518	0.5698365600
-0.2222807600	-0.0349999520	-0.0087693948	0.0023685896	0.5954340700
-0.2269173400	-0.0349999520	-0.0061148154	0.0021420069	0.6444217600
-0.2277527900	-0.0349999520	-0.0056416937	0.0021044850	0.6529352700
-0.2281548800	-0.0349999520	-0.0053861295	0.0020892173	0.6579611900
-0.2325851500	-0.0349999520	-0.0025058542	0.0019225825	0.7155289600
-0.2347157900	-0.0349999520	-0.0009533624	0.0018124531	0.7509815100
-0.2367444800	-0.0349999520	0.0005957431	0.0017222628	0.7858846200
-0.2395777100	-0.0349999520	0.0030257110	0.0015186737	0.8430829600
-0.2402649400	-0.0349999520	0.0036554751	0.0014575803	0.8582402500
-0.2424190200	-0.0349999520	0.0059136227	0.0011855690	0.9094447500
-0.2432087800	-0.0349999520	0.0067312275	0.0010905718	0.9282085300
-0.2433614300	-0.0349999520	0.0069158617	0.0010614017	0.9318818400
-0.2458563000	-0.0349999520	0.0102754280	0.0004706813	0.9867793900
-0.2462567200	-0.0349999520	0.0109490570	0.0003404413	0.9907133000
-0.2478848500	-0.0349999520	0.0142579500	-0.0002307406	0.9809537500
-0.2482663800	-0.0349999520	0.0153929600	-0.0003114027	0.9552271400
-0.2489403300	-0.0349999520	0.0181921650	-0.0003274648	0.8627286000
-0.2490613000	-0.0349999520	0.0213346180	0.0004882965	0.6598233000
-0.2490662500	-0.0349999520	0.0215698370	0.0005559432	0.6438002000
-0.2490026100	-0.0349999520	0.0218968060	0.0007210824	0.6137470600
-0.2484465800	-0.0349999520	0.0249083550	0.0022567218	0.3374024300
-0.2480710700	-0.0349999520	0.0259258230	0.0027558364	0.2370276200
-0.2469296500	-0.0349999520	0.0284295720	0.0039607429	-0.0042559775
-0.2461051600	-0.0349999520	0.0297605730	0.0045083678	-0.1173081000
-0.2444280400	-0.0349999520	0.0319614890	0.0053580199	-0.2808478200
-0.2434532300	-0.0349999520	0.0330504330	0.0057292673	-0.3471095600
-0.2412186900	-0.0349999520	0.0351370570	0.0063151478	-0.4400532200
-0.2405962000	-0.0349999520	0.0356738490	0.0064425004	-0.4595082100
-0.2374531900	-0.0349999520	0.0379889420	0.0068483912	-0.5138334600
-0.2373321800	-0.0349999520	0.0380733420	0.0068595493	-0.5154930400
-0.2367792700	-0.0349999520	0.0384051690	0.0068713104	-0.5186506500
-0.2335192100	-0.0349999520	0.0403809210	0.0069706312	-0.5375146900
-0.2323918000	-0.0349999520	0.0409742670	0.0069358629	-0.5394291300
-0.2287814800	-0.0349999520	0.0427793340	0.0068017298	-0.5432421000
-0.2258138800	-0.0349999520	0.0440551150	0.0066066281	-0.5392673600
-0.2226908800	-0.0349999520	0.0453426200	0.0064638649	-0.5322862900
-0.2155133500	-0.0349999520	0.0478311520	0.0062697757	-0.5126417900
-0.2148313100	-0.0349999520	0.0480608270	0.0062523963	-0.5104991800
-0.2126705300	-0.0349999520	0.0486489940	0.0061955441	-0.5043901200
-0.2044686500	-0.0349999520	0.0509254820	0.0060131253	-0.4787651600
-0.2022480800	-0.0349999520	0.0514802110	0.0059849689	-0.4740258500
-0.1999874400	-0.0349999520	0.0519802050	0.0059298932	-0.4683776800
-0.1900892600	-0.0349999520	0.0540324710	0.0056338369	-0.4435487100
-0.1892005800	-0.0349999520	0.0542066770	0.0055931816	-0.4413141600
-0.1881534600	-0.0349999520	0.0543847340	0.0055573169	-0.4394173300
-0.1778278900	-0.0349999520	0.0560785640	0.0052482362	-0.4184770900
-0.1716046500	-0.0349999520	0.0569627060	0.0051395384	-0.4078927300
-0.1588515900	-0.0349999520	0.0584455690	0.0049978223	-0.3856605600
-0.1565775000	-0.0349999520	0.0587117780	0.0049718595	-0.3816574800
-0.1529838600	-0.0349999520	0.0590107930	0.0049450655	-0.3766396900
-0.1401925700	-0.0349999520	0.0601088890	0.0048488358	-0.3579088700
-0.1341018800	-0.0349999520	0.0605064030	0.0047863290	-0.3498251100
-0.1220754400	-0.0349999520	0.0611505730	0.0046344196	-0.3338573900
-0.1165191300	-0.0349999520	0.0614002090	0.0045658008	-0.3268456500
-0.1028426100	-0.0349999520	0.0617918520	0.0043683935	-0.3117942800
-0.0997293220	-0.0349999520	0.0618838590	0.0043252570	-0.3082101000
-0.0968666970	-0.0349999520	0.0619118180	0.0042908017	-0.3051209200
-0.0828404800	-0.0349999520	0.0620589890	0.0041076588	-0.2899158000
-0.0746377780	-0.0349999520	0.0620271450	0.0040122917	-0.2813329400
-0.0653693450	-0.0349999520	0.0619541890	0.0039238860	-0.2714934900
-0.0505519810	-0.0349999520	0.0616613850	0.0037850304	-0.2560365800
-0.0461208490	-0.0349999520	0.0615451040	0.0037521535	-0.2511825300
-0.0276754680	-0.0349999520	0.0608899520	0.0036717645	-0.2312580500
-0.0225554000	-0.0349999520	0.0606677870	0.0036660920	-0.2259821900
-0.0005935972	-0.0349999520	0.0595272370	0.0036347380	-0.2036175000
0.0017062983	-0.0349999520	0.0593893570	0.0036277319	-0.2013182900
0.0249315160	-0.0349999520	0.0578424710	0.0035400582	-0.1789363300
0.0269653110	-0.0349999520	0.0576906280	0.0035299137	-0.1769380900
0.0517421850	-0.0349999520	0.0557061770	0.0034315137	-0.1527748400
0.0536500960	-0.0349999520	0.0555378200	0.0034231401	-0.1509282100
0.0808670970	-0.0349999520	0.0530039260	0.0033020528	-0.1248439600
0.0849180970	-0.0349999520	0.0525974110	0.0032803725	-0.1209437000
0.1146954200	-0.0349999520	0.0494255200	0.0031592230	-0.0925683230
0.1161396500	-0.0349999520	0.0492725150	0.0031530527	-0.0911901440
0.1163947300	-0.0349999520	0.0492439570	0.0031521231	-0.0909448640
0.1215479700	-0.0349999520	0.0486300850	0.0031299356	-0.0861128870
0.1527083400	-0.0349999520	0.0449234880	0.0029947102	-0.0568547320
0.1542070100	-0.0349999520	0.0447367090	0.0029882743	-0.0554796230
1 2 
2 3 
3 4 
4 5 
5 6 
6 7 
7 8 
8 9 
9 10 
10 11 
11 12 
12 13 
13 14 
14 15 
15 16 
16 17 
17 18 
18 19 
19 20 
20 21 
21 22 
22 23 
23 24 
24 25 
25 26 
26 27 
27 28 
28 29 
29 30 
30 31 
31 32 
32 33 
33 34 
34 35 
35 36 
36 37 
37 38 
38 39 
39 40 
40 41 
41 42 
42 43 
43 44 
44 45 
45 46 
46 47 
47 48 
48 49 
49 50 
50 51 
51 52 
52 53 
53 54 
54 55 
55 56 
56 57 
57 58 
58 59 
59 60 
60 61 
61 62 
62 63 
63 64 
64 65 
65 66 
66 67 
67 68 
68 69 
69 70 
70 71 
71 72 
72 73 
73 74 
74 75 
75 76 
76 77 
77 78 
78 79 
79 80 
80 81 
81 82 
82 83 
83 84 
84 85 
85 86 
86 87 
87 88 
88 89 
89 90 
90 91 
91 92 
92 93 
93 94 
94 95 
95 96 
96 97 
97 98 
98 99 
99 100 
100 101 
101 102 
102 103 
103 104 
104 105 
105 106 
106 107 
107 108 
108 109 
109 110 
110 111 
111 112 
112 113 
113 114 
114 115 
115 116 
116 117 
117 118 
118 119 
119 120 
120 121 
121 122 
122 123 
123 124 
124 125 
125 126 
126 127 
127 128 
128 129 
129 130 
130 131 
131 132 
132 133 
133 134 
134 135 
135 136 
136 137 
137 138 
138 139 
139 140 
140 141 
141 142 
142 143 
143 144 
144 145 
145 146 
146 147 
147 148 
148 149 
149 150 
150 151 
151 152 
152 153 
153 154 
154 155 
155 156 
156 157 
157 158 
158 159 
159 160 
160 161 
161 162 
162 163 
163 164 
164 165 
165 166 
166 167 
167 168 
168 169 
169 170 
170 171 
ZONE T="Slice: Y=-0.73"
STRANDID=0, SOLUTIONTIME=0
Nodes=194, Elements=193, ZONETYPE=FELineSeg
DATAPACKING=POINT
DT=(DOUBLE DOUBLE DOUBLE DOUBLE DOUBLE )
0.2222330100	-0.7299999600	0.0355131220	0.0026614128	0.0884741470