#                                                        =====
# NVer CD  CDp  CDf  CL  CLp  CLf Pitch 
VARIABLES = "N", "CD", "CDp", "CDv", "CL", "CLp", "CLf" "CM"
ZONE T = "WOLF"
864032   1.057390e-01 9.484861e-02 1.089036e-02 8.276000e-01 8.282852e-01 -6.852598e-04  4.552807e-02 
5809227  6.405733e-02 5.208687e-02 1.197046e-02 1.061429e+00 1.061958e+00 -5.290251e-04 -4.970523e-02 
42924328 6.353015e-02 5.136160e-02 1.216855e-02 1.064888e+00 1.065447e+00 -5.583815e-04 -5.473584e-02 
