TITLE     = "Surface mesh and solution"
VARIABLES = "x"
"y"
"z"
"cfx"
"Cp"
DATASETAUXDATA alpha_deg="  0.0000000E+00"
DATASETAUXDATA beta_deg="  0.0000000E+00"
DATASETAUXDATA bref="  0.7500000"
DATASETAUXDATA cref="   1.000000"
DATASETAUXDATA itranflg="           0"
DATASETAUXDATA ivisc="           2"
DATASETAUXDATA mach="  0.2000000"
DATASETAUXDATA reue_mil="   4.600000"
DATASETAUXDATA sref="  0.7500000"
DATASETAUXDATA tinf_r="   521.0000"
DATASETAUXDATA xmc="  0.0000000E+00"
DATASETAUXDATA ymc="  0.0000000E+00"
DATASETAUXDATA zmc="  0.0000000E+00"
ZONE T="USM3D-ME, MITAdapted_X0320k, Slice: Y=-0.001"
 STRANDID=0, SOLUTIONTIME=0
 Nodes=606, Elements=591, ZONETYPE=FELineSeg
 DATAPACKING=POINT
 DT=(DOUBLE DOUBLE DOUBLE DOUBLE DOUBLE )
 -2.490750655E-01 -1.000000000E-03 2.137422699E-02 2.238599128E-04 6.153555282E-01
 -2.490989305E-01 -1.000000000E-03 2.076284727E-02 8.709073175E-05 6.588806939E-01
 -2.490486745E-01 -1.000000000E-03 2.178893569E-02 3.619182408E-04 5.845519812E-01
 -2.489505041E-01 -1.000000000E-03 2.262073976E-02 5.900148971E-04 5.192316714E-01
 -2.370049049E-01 -1.000000000E-03 3.828743659E-02 6.301284263E-03 -3.670335264E-01
 -2.379404188E-01 -1.000000000E-03 3.766246900E-02 6.277914486E-03 -3.457362638E-01
 -2.453560333E-01 -1.000000000E-03 3.084699023E-02 4.562669380E-03 -8.973877535E-02
 -2.450909866E-01 -1.000000000E-03 3.119859435E-02 4.526593446E-03 -1.019820230E-01
 -2.448000997E-01 -1.000000000E-03 3.155269801E-02 5.078252393E-03 -1.139668742E-01
 -2.458082336E-01 -1.000000000E-03 3.024055295E-02 4.309166555E-03 -6.195676441E-02
 -2.439083559E-01 -1.000000000E-03 3.257882416E-02 5.327613372E-03 -1.912418080E-01
 -2.444853732E-01 -1.000000000E-03 3.193276236E-02 5.042236877E-03 -1.327209424E-01
 -2.476596133E-01 -1.000000000E-03 2.702645889E-02 2.736474688E-03 1.663911492E-01
 -2.479256199E-01 -1.000000000E-03 2.640855702E-02 2.342557577E-03 2.216204704E-01
 -2.475207947E-01 -1.000000000E-03 2.732155099E-02 2.864389993E-03 1.414072328E-01
 -2.471024020E-01 -1.000000000E-03 2.815705136E-02 3.178807281E-03 8.873435444E-02
 -2.465846303E-01 -1.000000000E-03 2.906043910E-02 4.087546343E-03 8.991224753E-03
 -2.467645167E-01 -1.000000000E-03 2.874800898E-02 3.846816642E-03 3.847540282E-02
 -2.465342809E-01 -1.000000000E-03 2.914080204E-02 4.133214009E-03 1.291519308E-03
 -2.463321720E-01 -1.000000000E-03 2.944393054E-02 4.327051809E-03 -1.456193982E-02
 -2.405081727E-01 -1.000000000E-03 3.574451824E-02 5.977967854E-03 -2.894348625E-01
 -2.409628062E-01 -1.000000000E-03 3.537549432E-02 5.823187565E-03 -2.816877747E-01
 -2.412825812E-01 -1.000000000E-03 3.509908097E-02 5.718725182E-03 -2.757307349E-01
 -2.392208029E-01 -1.000000000E-03 3.674404149E-02 6.155595111E-03 -3.289647802E-01
 -2.400818281E-01 -1.000000000E-03 3.608972910E-02 6.112054893E-03 -3.065996072E-01
 -2.390579261E-01 -1.000000000E-03 3.686803543E-02 6.134745475E-03 -3.351448254E-01
 -2.388516613E-01 -1.000000000E-03 3.701498822E-02 6.171689309E-03 -3.369364709E-01
 -2.419272376E-01 -1.000000000E-03 3.453805397E-02 5.301288024E-03 -2.625075505E-01
 -2.426911466E-01 -1.000000000E-03 3.382673842E-02 5.913085369E-03 -2.391124872E-01
 -2.193495509E-01 -1.000000000E-03 4.656911811E-02 7.039569257E-03 -4.251990237E-01
 -2.200474263E-01 -1.000000000E-03 4.631523133E-02 7.236184374E-03 -4.258888564E-01
 -2.219242292E-01 -1.000000000E-03 4.563717402E-02 7.886127527E-03 -4.329556160E-01
 -2.290832005E-01 -1.000000000E-03 4.264333087E-02 7.392835454E-03 -4.220562432E-01
 -2.301226364E-01 -1.000000000E-03 4.214434106E-02 7.280456803E-03 -4.193624248E-01
 -2.312743695E-01 -1.000000000E-03 4.157059679E-02 7.031278130E-03 -4.136096465E-01
 -2.273946505E-01 -1.000000000E-03 4.341125684E-02 6.798276823E-03 -4.320936281E-01
 -2.367790908E-01 -1.000000000E-03 3.843574041E-02 6.399713720E-03 -3.717950939E-01
 -2.363354169E-01 -1.000000000E-03 3.871043938E-02 6.533883989E-03 -3.760121768E-01
 -2.484237551E-01 -1.000000000E-03 2.499122864E-02 1.517973424E-03 3.432641875E-01
 -2.485794982E-01 -1.000000000E-03 2.438637851E-02 1.269940094E-03 3.865172851E-01
 -2.483897110E-01 -1.000000000E-03 2.511425075E-02 1.582389439E-03 3.337274334E-01
 -2.483248127E-01 -1.000000000E-03 2.529832844E-02 1.741528078E-03 3.156814896E-01
 -2.487597863E-01 -1.000000000E-03 2.370177047E-02 9.517335799E-04 4.363962755E-01
 -2.488694913E-01 -1.000000000E-03 2.310317253E-02 7.630083234E-04 4.821587880E-01
 -2.489382831E-01 -1.000000000E-03 2.272154189E-02 6.259958707E-04 5.114445073E-01
 -2.490789792E-01 -1.000000000E-03 1.962258742E-02 -1.560396777E-04 7.299046703E-01
 -2.278407240E-01 -1.000000000E-03 4.320717562E-02 7.005932657E-03 -4.290875437E-01
 -2.268319225E-01 -1.000000000E-03 4.365332756E-02 7.032816447E-03 -4.315007232E-01
 -2.490011999E-01 -1.000000000E-03 1.893739918E-02 -2.315564776E-04 7.668170773E-01
 -2.490960592E-01 -1.000000000E-03 1.985464459E-02 -1.310654063E-04 7.169541440E-01
 -2.488797721E-01 -1.000000000E-03 1.776005522E-02 -3.502640708E-04 8.320733988E-01
 -2.351715853E-01 -1.000000000E-03 3.943350721E-02 6.585715454E-03 -3.862602985E-01
 -2.332446850E-01 -1.000000000E-03 4.051533322E-02 6.559096648E-03 -3.997558833E-01
 -2.325712460E-01 -1.000000000E-03 4.089750300E-02 6.842188166E-03 -4.060891196E-01
 -2.321388404E-01 -1.000000000E-03 4.113021900E-02 6.940181183E-03 -4.074385777E-01
 -2.427646079E-01 -1.000000000E-03 3.375577664E-02 5.963661128E-03 -2.370319955E-01
 -2.435700686E-01 -1.000000000E-03 3.294259104E-02 5.926358092E-03 -2.126203694E-01
 -2.250515993E-01 -1.000000000E-03 4.440820025E-02 7.830304890E-03 -4.331546528E-01
 -2.235880670E-01 -1.000000000E-03 4.499794951E-02 9.293939836E-03 -4.353138006E-01
 -2.236042523E-01 -1.000000000E-03 4.499167600E-02 9.296550974E-03 -4.353115138E-01
 -1.344832288E-01 -1.000000000E-03 6.049539720E-02 5.347362521E-03 -3.302477448E-01
 -1.362995143E-01 -1.000000000E-03 6.037303690E-02 5.316996410E-03 -3.327746904E-01
 -1.353217008E-01 -1.000000000E-03 6.044349978E-02 5.316525438E-03 -3.314453686E-01
 -1.285609398E-01 -1.000000000E-03 6.084496137E-02 4.909704162E-03 -3.251437380E-01
 -1.236820947E-01 -1.000000000E-03 6.108655184E-02 5.206977113E-03 -3.235374819E-01
 -1.171840460E-01 -1.000000000E-03 6.136596485E-02 5.188680837E-03 -3.164896324E-01
 -1.214336382E-01 -1.000000000E-03 6.119816556E-02 5.274153891E-03 -3.224565371E-01
 -1.129059398E-01 -1.000000000E-03 6.153418060E-02 5.139019550E-03 -3.099266324E-01
 -1.101978178E-01 -1.000000000E-03 6.161222838E-02 4.926122402E-03 -3.077772113E-01
 -1.916114420E-01 -1.000000000E-03 5.374905114E-02 6.304268646E-03 -4.047406370E-01
 -1.910940441E-01 -1.000000000E-03 5.385238708E-02 6.233357132E-03 -4.039109138E-01
 -1.906531834E-01 -1.000000000E-03 5.393198757E-02 6.258379494E-03 -4.031852440E-01
 -1.958012684E-01 -1.000000000E-03 5.291385857E-02 5.992463936E-03 -4.115431300E-01
 -1.987962669E-01 -1.000000000E-03 5.226374835E-02 6.159754924E-03 -4.174333107E-01
 -8.931584571E-02 -1.000000000E-03 6.202661463E-02 4.363846924E-03 -2.841104423E-01
 -8.924759324E-02 -1.000000000E-03 6.202726245E-02 4.360969447E-03 -2.840126699E-01
 -8.928136078E-02 -1.000000000E-03 6.202708583E-02 4.360088598E-03 -2.840489998E-01
 -8.909471616E-02 -1.000000000E-03 6.202743605E-02 4.359882496E-03 -2.838588199E-01
 -4.083320658E-02 -1.000000000E-03 6.138890782E-02 4.066500189E-03 -2.353634924E-01
 -1.005214503E-01 -1.000000000E-03 6.186280261E-02 4.121521288E-03 -2.979788978E-01
 -1.052508408E-01 -1.000000000E-03 6.176081247E-02 4.559187748E-03 -3.036141094E-01
 -9.870106807E-02 -1.000000000E-03 6.190300467E-02 4.031155462E-03 -2.958832524E-01
 -2.052412659E-01 -1.000000000E-03 5.074830255E-02 6.441376408E-03 -4.223311603E-01
 -2.011798531E-01 -1.000000000E-03 5.172681440E-02 6.150212035E-03 -4.198343944E-01
 9.259536591E-02 -1.000000000E-03 5.181904196E-02 2.634735323E-03 -1.096218660E-01
 -6.465713341E-02 -1.000000000E-03 6.194776710E-02 4.095075133E-03 -2.578824288E-01
 -5.787286404E-02 -1.000000000E-03 6.183522872E-02 4.189405587E-03 -2.543432015E-01
 -5.182491619E-02 -1.000000000E-03 6.169649260E-02 3.932851762E-03 -2.500506693E-01
 -6.569435954E-02 -1.000000000E-03 6.196357780E-02 4.091064155E-03 -2.586329921E-01
 -6.685931398E-02 -1.000000000E-03 6.197355840E-02 4.078741214E-03 -2.597947732E-01
 9.665896966E-02 -1.000000000E-03 5.138752142E-02 2.685915053E-03 -1.062101074E-01
 1.155036693E-01 -1.000000000E-03 4.934236734E-02 2.525239282E-03 -9.025176987E-02
 1.052271033E-01 -1.000000000E-03 5.047931400E-02 2.400629310E-03 -9.805332123E-02
 1.166769814E-01 -1.000000000E-03 4.921233450E-02 2.513776110E-03 -8.918337739E-02
 -1.523352412E-01 -1.000000000E-03 5.911973521E-02 6.132546505E-03 -3.545758550E-01
 -1.520620638E-01 -1.000000000E-03 5.914631508E-02 6.143277057E-03 -3.542591434E-01
 -1.518120574E-01 -1.000000000E-03 5.916732958E-02 6.128350677E-03 -3.540205960E-01
 -1.607875923E-01 -1.000000000E-03 5.827033376E-02 5.522547401E-03 -3.643400788E-01
 -7.702003771E-02 -1.000000000E-03 6.205626497E-02 4.244843225E-03 -2.717956475E-01
 -1.865752723E-01 -1.000000000E-03 5.467666168E-02 5.716754816E-03 -4.016800328E-01
 8.740826014E-02 -1.000000000E-03 5.234760635E-02 2.532647906E-03 -1.140395810E-01
 -2.196023240E-02 -1.000000000E-03 6.064521084E-02 3.207594781E-03 -2.193896541E-01
 -2.009249827E-02 -1.000000000E-03 6.055356066E-02 3.148400900E-03 -2.175835137E-01
 -1.196366732E-02 -1.000000000E-03 6.015847729E-02 2.922331214E-03 -2.101780334E-01
 -1.744105750E-01 -1.000000000E-03 5.658186828E-02 6.459132981E-03 -3.788639433E-01
 -1.733175940E-01 -1.000000000E-03 5.673736197E-02 6.351277824E-03 -3.761381816E-01
 -2.490773860E-02 -1.000000000E-03 6.077611640E-02 3.331891826E-03 -2.215801010E-01
 -2.292979324E-02 -1.000000000E-03 6.069299155E-02 3.225801532E-03 -2.203595139E-01
 -2.142033389E-01 -1.000000000E-03 4.825558583E-02 7.004994651E-03 -4.383992416E-01
 -3.307252593E-02 -1.000000000E-03 6.111413140E-02 3.769040709E-03 -2.273687717E-01
 -3.906452873E-02 -1.000000000E-03 6.132541668E-02 4.070408392E-03 -2.334554179E-01
 -2.104087182E-01 -1.000000000E-03 4.937023561E-02 6.314094892E-03 -4.286463777E-01
 -2.085898225E-01 -1.000000000E-03 4.987512945E-02 6.888278383E-03 -4.298522817E-01
 -2.116907666E-01 -1.000000000E-03 4.900545364E-02 6.313711114E-03 -4.321704244E-01
 -2.139493313E-01 -1.000000000E-03 4.833282759E-02 7.024308440E-03 -4.390222886E-01
 -1.811025507E-01 -1.000000000E-03 5.558169257E-02 6.436744970E-03 -3.981969411E-01
 -1.837024689E-01 -1.000000000E-03 5.516508499E-02 6.444812221E-03 -3.991486727E-01
 -1.825131289E-01 -1.000000000E-03 5.536242194E-02 6.567537010E-03 -3.982433271E-01
 -1.778445580E-01 -1.000000000E-03 5.608965074E-02 6.055237960E-03 -3.919937059E-01
 -1.690183455E-01 -1.000000000E-03 5.730409018E-02 6.348480890E-03 -3.767953431E-01
 -1.688677621E-01 -1.000000000E-03 5.732390997E-02 6.375204388E-03 -3.767030915E-01
 -1.682827855E-01 -1.000000000E-03 5.739344847E-02 6.322634516E-03 -3.757718442E-01
 1.236602626E-01 -1.000000000E-03 4.840547399E-02 2.420025451E-03 -8.208582884E-02
 1.322430956E-01 -1.000000000E-03 4.741451817E-02 2.317666022E-03 -7.337740224E-02
 4.509300184E-02 -1.000000000E-03 5.627031450E-02 2.846375770E-03 -1.556280146E-01
 4.688244312E-02 -1.000000000E-03 5.611670320E-02 2.869397803E-03 -1.539152149E-01
 5.865634455E-02 -1.000000000E-03 5.510041726E-02 2.842522114E-03 -1.425400700E-01
 -2.063938821E-01 -1.000000000E-03 5.045276812E-02 6.735775514E-03 -4.245048737E-01
 -1.420670374E-01 -1.000000000E-03 5.996986906E-02 4.823744550E-03 -3.431492945E-01
 -1.442611619E-01 -1.000000000E-03 5.980901049E-02 5.058166281E-03 -3.463475764E-01
 7.792498857E-02 -1.000000000E-03 5.329312309E-02 2.576255410E-03 -1.237558614E-01
 4.360289765E-02 -1.000000000E-03 5.638996734E-02 2.896991822E-03 -1.571691407E-01
 6.588818721E-02 -1.000000000E-03 5.443621262E-02 2.795954607E-03 -1.354879633E-01
 7.195155340E-02 -1.000000000E-03 5.387350095E-02 2.885415113E-03 -1.299322973E-01
 -2.146792095E-01 -1.000000000E-03 4.810317397E-02 7.050811702E-03 -4.376409297E-01
 -4.500633430E-02 -1.000000000E-03 6.151213716E-02 4.005206726E-03 -2.414770046E-01
 -4.941879385E-02 -1.000000000E-03 6.164171896E-02 3.825922740E-03 -2.479652736E-01
 -2.547375394E-03 -1.000000000E-03 5.964405900E-02 3.283374707E-03 -2.009013288E-01
 -4.205844458E-03 -1.000000000E-03 5.973112469E-02 3.253809585E-03 -2.026040151E-01
 -1.219570078E-03 -1.000000000E-03 5.956599663E-02 3.287395551E-03 -1.998114016E-01
 3.458976510E-02 -1.000000000E-03 5.711581609E-02 3.083367825E-03 -1.654162204E-01
 2.376824710E-02 -1.000000000E-03 5.792781293E-02 3.244655985E-03 -1.756889880E-01
 2.688614566E-02 -1.000000000E-03 5.769703278E-02 3.248849208E-03 -1.727981941E-01
 1.077937233E-02 -1.000000000E-03 5.882028049E-02 3.212864501E-03 -1.879200919E-01
 8.133188440E-03 -1.000000000E-03 5.899454267E-02 3.246591822E-03 -1.906574125E-01
 -2.169794256E-01 -1.000000000E-03 4.737254734E-02 7.624325671E-03 -4.430480634E-01
 -2.193495509E-01 -1.000000000E-03 4.656911811E-02 7.039569257E-03 -4.251990237E-01
 -2.184904670E-01 -1.000000000E-03 4.686073288E-02 7.355974198E-03 -4.323325111E-01
 -2.360113850E-01 -1.000000000E-03 6.522862195E-06 1.551640768E-03 8.197661315E-01
 -2.375098137E-01 -1.000000000E-03 1.227806952E-03 1.495540986E-03 8.472683207E-01
 -2.385839318E-01 -1.000000000E-03 2.126643637E-03 1.366317915E-03 8.665661278E-01
 -2.344675619E-01 -1.000000000E-03 -1.132129600E-03 1.724323990E-03 7.951264078E-01
 -2.297741507E-01 -1.000000000E-03 -4.380913372E-03 2.086390408E-03 7.245439769E-01
 -2.274074844E-01 -1.000000000E-03 -5.849849843E-03 2.463888601E-03 6.931466505E-01
 -2.277028986E-01 -1.000000000E-03 -5.669426892E-03 2.457967446E-03 6.962337574E-01
 -2.332181571E-01 -1.000000000E-03 -2.065773112E-03 1.811765853E-03 7.750973533E-01
 -2.318939611E-01 -1.000000000E-03 -2.964174903E-03 1.937509870E-03 7.555143309E-01
 -2.326895068E-01 -1.000000000E-03 -2.436293541E-03 1.897498915E-03 7.666738434E-01
 -2.228757883E-01 -1.000000000E-03 -8.444825232E-03 2.578940693E-03 6.498686416E-01
 -2.224284237E-01 -1.000000000E-03 -8.695245868E-03 2.635432896E-03 6.446443346E-01
 -2.220092183E-01 -1.000000000E-03 -8.916833997E-03 2.691277184E-03 6.397002334E-01
 -2.165536278E-01 -1.000000000E-03 -1.170694218E-02 2.918071345E-03 5.909127859E-01
 -2.179564561E-01 -1.000000000E-03 -1.101507551E-02 2.934990558E-03 6.011440412E-01
 -2.126828965E-01 -1.000000000E-03 -1.354027804E-02 2.906457949E-03 5.630031434E-01
 -2.091426280E-01 -1.000000000E-03 -1.511615784E-02 2.971371122E-03 5.399656156E-01
 -2.408707276E-01 -1.000000000E-03 4.247353243E-03 9.757631495E-04 9.079443612E-01
 -2.053009274E-01 -1.000000000E-03 -1.676351531E-02 2.954587848E-03 5.167114580E-01
 -2.416500207E-01 -1.000000000E-03 5.033118811E-03 8.271711496E-04 9.223734147E-01
 -2.429750766E-01 -1.000000000E-03 6.487600666E-03 5.494220875E-04 9.462355130E-01
 6.767416386E-01 -1.000000000E-03 -4.923222461E-02 2.138790583E-04 3.612130696E-01
 6.760239465E-01 -1.000000000E-03 -4.907315073E-02 2.147840881E-04 3.605326211E-01
 6.896470613E-01 -1.000000000E-03 -5.212533650E-02 1.609438550E-04 3.735152140E-01
 6.630765620E-01 -1.000000000E-03 -4.620219521E-02 2.516600775E-04 3.494753230E-01
 7.177940262E-01 -1.000000000E-03 -5.854300567E-02 7.413808622E-05 4.007917416E-01
 7.121210032E-01 -1.000000000E-03 -5.723973434E-02 8.307510623E-05 3.945286396E-01
 7.226949271E-01 -1.000000000E-03 -5.966937902E-02 6.274374388E-05 4.057806422E-01
 7.281542574E-01 -1.000000000E-03 -6.093275009E-02 7.391025293E-05 4.116164444E-01
 7.312304198E-01 -1.000000000E-03 -6.164963647E-02 6.953511628E-05 4.146195917E-01
 7.333204187E-01 -1.000000000E-03 -6.213410946E-02 5.231425306E-05 4.169357476E-01
 7.367147143E-01 -1.000000000E-03 -6.292401825E-02 6.122230457E-05 4.214717229E-01
 2.616197969E-01 -1.000000000E-03 2.964759563E-02 1.522995140E-03 4.073277604E-02
 2.693034021E-01 -1.000000000E-03 2.846403084E-02 1.608711995E-03 4.756678039E-02
 2.718986150E-01 -1.000000000E-03 2.805359261E-02 1.590767992E-03 4.975643601E-02
 4.168576586E-01 -1.000000000E-03 3.393012853E-03 1.106787375E-03 1.631633888E-01
 5.831176820E-01 -1.000000000E-03 -2.908753828E-02 5.372127682E-04 2.844772799E-01
 3.950874302E-01 -1.000000000E-03 7.329814360E-03 1.136051860E-03 1.473750305E-01
 2.018842414E-01 -1.000000000E-03 3.842040116E-02 1.920993215E-03 -1.001650132E-02
 1.929471348E-01 -1.000000000E-03 3.965308949E-02 2.072532582E-03 -1.846778962E-02
 2.093968424E-01 -1.000000000E-03 3.736030437E-02 1.869749466E-03 -4.007207440E-03
 2.242639656E-01 -1.000000000E-03 3.523442003E-02 1.709813175E-03 7.599810804E-03
 2.176959593E-01 -1.000000000E-03 3.618635627E-02 1.761534271E-03 1.661815035E-03
 4.711256226E-01 -1.000000000E-03 -6.757427938E-03 8.615269359E-04 2.036893849E-01
 4.872515781E-01 -1.000000000E-03 -9.856766861E-03 8.205336805E-04 2.148651593E-01
 4.620756397E-01 -1.000000000E-03 -5.029234779E-03 8.898851786E-04 1.980326036E-01
 5.079691351E-01 -1.000000000E-03 -1.389514032E-02 7.029042656E-04 2.303118613E-01
 1.827606005E-01 -1.000000000E-03 4.103106980E-02 2.198227192E-03 -2.624305965E-02
 1.502617451E-01 -1.000000000E-03 4.523071531E-02 2.329132376E-03 -5.670156518E-02
 3.706952080E-01 -1.000000000E-03 1.165742062E-02 1.137904412E-03 1.284440353E-01
 2.392263145E-01 -1.000000000E-03 3.303798424E-02 1.560167061E-03 2.227555584E-02
 5.500319854E-01 -1.000000000E-03 -2.229683518E-02 7.390077840E-04 2.610124864E-01
 5.641285296E-01 -1.000000000E-03 -2.517035557E-02 6.568475982E-04 2.700707483E-01
 5.428931905E-01 -1.000000000E-03 -2.085294483E-02 6.874159699E-04 2.556342901E-01
 5.733320438E-01 -1.000000000E-03 -2.706523919E-02 5.878260053E-04 2.769661245E-01
 5.953836431E-01 -1.000000000E-03 -3.165689935E-02 4.882729050E-04 2.945945437E-01
 6.418008367E-01 -1.000000000E-03 -4.155106909E-02 3.589732831E-04 3.318238974E-01
 6.595383336E-01 -1.000000000E-03 -4.542717946E-02 2.663467257E-04 3.466743745E-01
 1.508319691E-01 -1.000000000E-03 4.515860129E-02 2.327358112E-03 -5.617260395E-02
 1.698224557E-01 -1.000000000E-03 4.274269561E-02 2.142872645E-03 -3.890502246E-02
 5.095651882E-01 -1.000000000E-03 -1.421025923E-02 6.918431878E-04 2.314404794E-01
 5.302662428E-01 -1.000000000E-03 -1.831581283E-02 6.804614963E-04 2.456166071E-01
 1.467791669E-01 -1.000000000E-03 4.565272852E-02 2.331029833E-03 -5.992122532E-02
 1.322430956E-01 -1.000000000E-03 4.741451817E-02 2.317666022E-03 -7.337740224E-02
 2.505900895E-01 -1.000000000E-03 3.132790866E-02 1.452880842E-03 3.116518188E-02
 2.536239145E-01 -1.000000000E-03 3.087528902E-02 1.452011193E-03 3.372872531E-02
 2.321835001E-01 -1.000000000E-03 3.408291954E-02 1.606302372E-03 1.493189231E-02
 6.904830974E-01 -1.000000000E-03 -5.231064929E-02 1.523947145E-04 3.742556691E-01
 3.207656658E-01 -1.000000000E-03 2.018024749E-02 1.290401869E-03 8.964944294E-02
 3.223219490E-01 -1.000000000E-03 1.991947909E-02 1.288752846E-03 9.095569858E-02
 3.214739957E-01 -1.000000000E-03 2.006278768E-02 1.289365436E-03 9.025411808E-02
 3.410153625E-01 -1.000000000E-03 1.677750754E-02 1.297582351E-03 1.055900194E-01
 6.124800433E-01 -1.000000000E-03 -3.526003358E-02 4.270439371E-04 3.083188427E-01
 6.050761340E-01 -1.000000000E-03 -3.368717167E-02 4.500893489E-04 3.019563906E-01
 6.189959371E-01 -1.000000000E-03 -3.664268977E-02 4.081854591E-04 3.134369979E-01
 6.226519828E-01 -1.000000000E-03 -3.742346998E-02 3.836442656E-04 3.163083972E-01
 6.383384083E-01 -1.000000000E-03 -4.080044633E-02 3.699832084E-04 3.290118731E-01
 3.769565389E-01 -1.000000000E-03 1.054922554E-02 1.145477487E-03 1.332793130E-01
 4.054860278E-01 -1.000000000E-03 5.449022703E-03 1.135320706E-03 1.548023996E-01
 3.916802091E-01 -1.000000000E-03 7.944546637E-03 1.145540514E-03 1.447609025E-01
 1.753616440E-01 -1.000000000E-03 4.201440896E-02 2.181343242E-03 -3.334020203E-02
 3.694202632E-01 -1.000000000E-03 1.187873998E-02 1.138552869E-03 1.274341455E-01
 3.580405756E-01 -1.000000000E-03 1.385555237E-02 1.147768141E-03 1.196483881E-01
 3.488016341E-01 -1.000000000E-03 1.544957882E-02 1.166993825E-03 1.120683947E-01
 4.456641402E-01 -1.000000000E-03 -1.937997909E-03 9.524227685E-04 1.852183503E-01
 4.196357806E-01 -1.000000000E-03 2.884325750E-03 1.102593586E-03 1.651718054E-01
 4.179428857E-01 -1.000000000E-03 3.196102942E-03 1.102940919E-03 1.638697727E-01
 4.410309599E-01 -1.000000000E-03 -1.069595986E-03 1.004159475E-03 1.814498926E-01
 6.400409976E-01 -1.000000000E-03 -4.116665140E-02 3.678943656E-04 3.303377848E-01
 6.406427788E-01 -1.000000000E-03 -4.129788475E-02 3.638108803E-04 3.308327920E-01
 7.380015089E-01 -1.000000000E-03 -6.322620895E-02 5.622337004E-05 4.228284499E-01
 7.420075798E-01 -1.000000000E-03 -6.416181701E-02 5.755405551E-05 4.291663425E-01
 2.922680937E-01 -1.000000000E-03 2.483217072E-02 1.445131973E-03 6.657635842E-02
 2.908369551E-01 -1.000000000E-03 2.506416440E-02 1.447309192E-03 6.553175455E-02
 7.055021104E-01 -1.000000000E-03 -5.572601153E-02 1.174315734E-04 3.879891951E-01
 6.918528417E-01 -1.000000000E-03 -5.261900652E-02 1.473171737E-04 3.755523829E-01
 7.427565592E-01 -1.000000000E-03 -6.433787323E-02 3.669713556E-05 4.303016834E-01
 7.471385939E-01 -1.000000000E-03 -6.536506374E-02 1.770383288E-06 4.514305832E-01
 7.471435686E-01 -1.000000000E-03 -6.536623101E-02 1.779294768E-06 4.523276731E-01
 7.471435940E-01 -1.000000000E-03 -6.536623699E-02 6.050362230E-06 4.523159665E-01
 7.471300368E-01 -1.000000000E-03 -6.536305592E-02 1.782963645E-06 4.508619119E-01
 7.471299635E-01 -1.000000000E-03 -6.536303858E-02 1.643015626E-06 4.508642603E-01
 7.471384137E-01 -1.000000000E-03 -6.536723787E-02 3.685354729E-06 4.542927888E-01
 7.471384299E-01 -1.000000000E-03 -6.536723694E-02 6.172678074E-06 4.542961341E-01
 7.471460137E-01 -1.000000000E-03 -6.536680763E-02 6.152967205E-06 4.535671617E-01
 7.471432330E-01 -1.000000000E-03 -6.536696504E-02 6.158854903E-06 4.535917867E-01
 7.471383673E-01 -1.000000000E-03 -6.536724052E-02 4.114212501E-06 4.542937825E-01
 7.471460236E-01 -1.000000000E-03 -6.536680706E-02 6.061616486E-06 4.535577596E-01
 7.470495170E-01 -1.000000000E-03 -6.537227047E-02 4.067893366E-06 4.543648647E-01
 7.469230143E-01 -1.000000000E-03 -6.537942947E-02 4.107405937E-06 4.536985136E-01
 7.469209395E-01 -1.000000000E-03 -6.537954870E-02 3.538492580E-06 4.536799182E-01
 7.466415600E-01 -1.000000000E-03 -6.539535203E-02 3.599339389E-06 4.518810949E-01
 7.471095971E-01 -1.000000000E-03 -6.535825971E-02 5.680127644E-07 4.497393487E-01
 7.470310358E-01 -1.000000000E-03 -6.533982679E-02 5.547959794E-07 4.488228677E-01
 7.471098280E-01 -1.000000000E-03 -6.535831405E-02 1.641313462E-06 4.497432671E-01
 7.466631221E-01 -1.000000000E-03 -6.525351264E-02 6.363961791E-07 4.468107812E-01
 7.466607267E-01 -1.000000000E-03 -6.525294552E-02 9.569187668E-07 4.468147748E-01
 7.470303172E-01 -1.000000000E-03 -6.533965738E-02 6.057513020E-07 4.488209534E-01
 7.468677125E-01 -1.000000000E-03 -6.530150783E-02 6.047718121E-07 4.479955548E-01
 7.462328485E-01 -1.000000000E-03 -6.515258761E-02 9.814432015E-07 4.438065238E-01
 7.470501976E-01 -1.000000000E-03 -6.537223151E-02 3.632422255E-06 4.543776122E-01
 7.470506301E-01 -1.000000000E-03 -6.537220703E-02 5.005641588E-06 4.543749321E-01
 7.471185121E-01 -1.000000000E-03 -6.536836450E-02 4.160235495E-06 4.538924611E-01
 7.471182732E-01 -1.000000000E-03 -6.536837820E-02 4.980108698E-06 4.538917858E-01
 7.466337884E-01 -1.000000000E-03 -6.539579500E-02 5.638674582E-06 4.518262952E-01
 7.452062968E-01 -1.000000000E-03 -6.547636107E-02 8.171199459E-06 4.452071724E-01
 7.458835152E-01 -1.000000000E-03 -6.543818034E-02 5.897059006E-06 4.484518558E-01
 7.451504708E-01 -1.000000000E-03 -6.489882650E-02 2.258590069E-06 4.376706397E-01
 7.451619206E-01 -1.000000000E-03 -6.490150588E-02 1.842161811E-06 4.377120998E-01
 7.451132030E-01 -1.000000000E-03 -6.489002052E-02 4.625223701E-06 4.375810343E-01
 7.462245223E-01 -1.000000000E-03 -6.515061693E-02 1.341354612E-06 4.437633362E-01
 7.427565592E-01 -1.000000000E-03 -6.433787323E-02 3.669713556E-05 4.303016834E-01
 7.451880867E-01 -1.000000000E-03 -6.547741318E-02 1.445883722E-05 4.451015240E-01
 7.429383779E-01 -1.000000000E-03 -6.438078361E-02 1.930034563E-05 4.306606130E-01
 -2.436623600E-01 -1.000000000E-03 7.371412961E-03 4.510707058E-04 9.557104403E-01
 -2.453978515E-01 -1.000000000E-03 9.568160223E-03 1.603231636E-04 9.809814536E-01
 -2.447272718E-01 -1.000000000E-03 8.645721962E-03 2.643490218E-04 9.735081801E-01
 -2.472613930E-01 -1.000000000E-03 1.278597234E-02 -1.636341827E-04 9.751621274E-01
 -2.469073509E-01 -1.000000000E-03 1.207664173E-02 -9.871802792E-05 9.826826529E-01
 -2.484650925E-01 -1.000000000E-03 1.591404011E-02 -3.477274231E-04 9.057767343E-01
 -2.484812206E-01 -1.000000000E-03 1.598240500E-02 -3.496383113E-04 9.031412533E-01
 -2.484542268E-01 -1.000000000E-03 1.588328863E-02 -3.465812824E-04 9.065877754E-01
 -2.429750766E-01 -1.000000000E-03 6.487600666E-03 5.494220875E-04 9.462355130E-01
 -2.463881615E-01 -1.000000000E-03 1.113396033E-02 2.016899924E-05 9.855229860E-01
 -2.461380644E-01 -1.000000000E-03 1.072424381E-02 6.821163688E-05 9.854627003E-01
 -2.476473109E-01 -1.000000000E-03 1.362752962E-02 -2.109992748E-04 9.627108784E-01
 1.668157920E-01 -1.000000000E-03 -7.188682759E-02 7.841351375E-05 1.816163056E-01
 1.605838829E-01 -1.000000000E-03 -7.161120643E-02 1.061426934E-04 1.815430596E-01
 1.668958710E-01 -1.000000000E-03 -7.189026614E-02 7.459811796E-05 1.816168409E-01
 1.727061640E-01 -1.000000000E-03 -7.213720131E-02 1.274705357E-04 1.797876545E-01
 8.302556819E-02 -1.000000000E-03 -6.717104862E-02 8.652012169E-05 1.792215386E-01
 8.294481428E-02 -1.000000000E-03 -6.716532638E-02 8.831086994E-05 1.791958150E-01
 8.898991234E-02 -1.000000000E-03 -6.758595194E-02 1.883211514E-04 1.881124805E-01
 8.906661843E-02 -1.000000000E-03 -6.759120785E-02 1.862800607E-04 1.881126769E-01
 8.915943846E-02 -1.000000000E-03 -6.759741725E-02 1.953721509E-04 1.880660141E-01
 1.772248433E-01 -1.000000000E-03 -7.232274009E-02 1.559925263E-04 1.793430479E-01
 1.727832496E-01 -1.000000000E-03 -7.214038388E-02 1.189312849E-04 1.797762349E-01
 1.772913237E-01 -1.000000000E-03 -7.232536953E-02 1.540429002E-04 1.793626499E-01
 1.829343497E-01 -1.000000000E-03 -7.254919113E-02 1.316551617E-04 1.855735554E-01
 1.095604731E-01 -1.000000000E-03 -6.891582348E-02 1.537781433E-04 1.861917494E-01
 1.025432717E-01 -1.000000000E-03 -6.847919653E-02 2.093440017E-04 1.834473293E-01
 1.096742773E-01 -1.000000000E-03 -6.892272129E-02 1.446826011E-04 1.862579241E-01
 1.157588266E-01 -1.000000000E-03 -6.928731330E-02 2.247076867E-04 1.869832489E-01
 7.919072400E-02 -1.000000000E-03 -6.689698201E-02 8.957886607E-05 1.783660412E-01
 7.908939739E-02 -1.000000000E-03 -6.688954859E-02 9.197642726E-05 1.783965811E-01
 7.364885572E-02 -1.000000000E-03 -6.649053207E-02 5.292074242E-05 1.840128809E-01
 6.944893980E-02 -1.000000000E-03 -6.617412837E-02 1.379481942E-04 1.846241989E-01
 1.023253681E-01 -1.000000000E-03 -6.846530904E-02 1.971429992E-04 1.834614617E-01
 9.470092070E-02 -1.000000000E-03 -6.797062070E-02 2.075720228E-04 1.867008983E-01
 1.024385647E-01 -1.000000000E-03 -6.847255020E-02 1.766705402E-04 1.834435892E-01
 1.578749840E-02 -1.000000000E-03 -6.143398033E-02 2.958516926E-04 1.940976274E-01
 1.174675997E-02 -1.000000000E-03 -6.101958769E-02 2.064703911E-04 2.010301886E-01
 1.414598767E-01 -1.000000000E-03 -7.069498496E-02 5.270407501E-05 1.873895823E-01
 1.415808429E-01 -1.000000000E-03 -7.070120333E-02 9.030269509E-05 1.873887399E-01
 1.413192589E-01 -1.000000000E-03 -7.068793607E-02 7.861630843E-05 1.874634312E-01
 1.474045844E-01 -1.000000000E-03 -7.099157292E-02 2.302096306E-04 1.884509741E-01
 6.739477895E-03 -1.000000000E-03 -6.049373222E-02 2.934042412E-04 2.062102328E-01
 1.160577862E-02 -1.000000000E-03 -6.100496285E-02 1.999392575E-04 2.012558756E-01
 1.604308706E-01 -1.000000000E-03 -7.160433717E-02 1.149816194E-04 1.815858496E-01
 1.605181151E-01 -1.000000000E-03 -7.160825677E-02 9.511679601E-05 1.815588310E-01
 -2.101988413E-03 -1.000000000E-03 -5.953066629E-02 7.749024052E-04 2.177075327E-01
 -7.267651549E-03 -1.000000000E-03 -5.894798094E-02 9.517746471E-04 2.234596347E-01
 -1.744545777E-03 -1.000000000E-03 -5.957095347E-02 7.021135274E-04 2.175951525E-01
 -7.945411426E-03 -1.000000000E-03 -5.886960795E-02 1.107394886E-03 2.221092611E-01
 6.930026738E-02 -1.000000000E-03 -6.616271684E-02 1.473936594E-04 1.846396619E-01
 6.938391473E-02 -1.000000000E-03 -6.616923775E-02 1.212472754E-04 1.846176397E-01
 2.874176229E-02 -1.000000000E-03 -6.270519346E-02 2.691676100E-04 1.946877047E-01
 2.411120742E-02 -1.000000000E-03 -6.226072533E-02 2.728018542E-04 2.010495528E-01
 2.885192560E-02 -1.000000000E-03 -6.271565612E-02 2.502611356E-04 1.946472859E-01
 2.401324983E-02 -1.000000000E-03 -6.225123654E-02 2.800555570E-04 2.010542149E-01
 1.333039761E-01 -1.000000000E-03 -7.027085026E-02 1.102326100E-04 1.941096294E-01
 1.331393842E-01 -1.000000000E-03 -7.026209858E-02 1.047676907E-04 1.941103413E-01
 6.243287550E-02 -1.000000000E-03 -6.562919108E-02 7.974003482E-05 1.857702694E-01
 2.038103385E-02 -1.000000000E-03 -6.189474024E-02 2.433008253E-04 1.982964342E-01
 2.024497431E-02 -1.000000000E-03 -6.188122843E-02 2.510302441E-04 1.981733701E-01
 1.365920588E-01 -1.000000000E-03 -7.044441935E-02 9.633964607E-05 1.923786768E-01
 1.288327775E-01 -1.000000000E-03 -7.002952156E-02 1.465847485E-04 1.895929421E-01
 1.927062427E-01 -1.000000000E-03 -7.291641766E-02 1.068811908E-04 1.900716063E-01
 1.830419050E-01 -1.000000000E-03 -7.255327233E-02 1.564645784E-04 1.856311430E-01
 1.286423154E-01 -1.000000000E-03 -7.001927046E-02 1.836045730E-04 1.894101813E-01
 1.219165132E-01 -1.000000000E-03 -6.964387359E-02 2.822704697E-04 1.843637969E-01
 1.217079907E-01 -1.000000000E-03 -6.963193089E-02 2.461965756E-04 1.843432618E-01
 4.118002446E-02 -1.000000000E-03 -6.384659163E-02 4.046867376E-05 1.924503425E-01