TITLE     = "Surface mesh and solution"
VARIABLES = "x"
"y"
"z"
"cfx"
"Cp"
DATASETAUXDATA alpha_deg="  0.0000000E+00"
DATASETAUXDATA beta_deg="  0.0000000E+00"
DATASETAUXDATA bref="  0.7500000"
DATASETAUXDATA cref="   1.000000"
DATASETAUXDATA itranflg="           0"
DATASETAUXDATA ivisc="           2"
DATASETAUXDATA mach="  0.2000000"
DATASETAUXDATA reue_mil="   4.600000"
DATASETAUXDATA sref="  0.7500000"
DATASETAUXDATA tinf_r="   521.0000"
DATASETAUXDATA xmc="  0.0000000E+00"
DATASETAUXDATA ymc="  0.0000000E+00"
DATASETAUXDATA zmc="  0.0000000E+00"
ZONE T="Slice: Y=-0.001"
 STRANDID=0, SOLUTIONTIME=0
 Nodes=1040, Elements=1010, ZONETYPE=FELineSeg
 DATAPACKING=POINT
 DT=(DOUBLE DOUBLE DOUBLE DOUBLE DOUBLE )
 -2.451225349E-01 -1.000000000E-03 3.405261986E-02 -2.157744850E-03 5.787397724E-01
 -2.450572261E-01 -1.000000000E-03 3.388696324E-02 -2.156944074E-03 5.927590336E-01
 -2.451488198E-01 -1.000000000E-03 3.412040225E-02 -2.157150387E-03 5.729114716E-01
 -2.452124834E-01 -1.000000000E-03 3.428737677E-02 -2.155175880E-03 5.583221846E-01
 -2.450308946E-01 -1.000000000E-03 3.382124045E-02 -2.156386719E-03 5.982331454E-01
 -2.449635210E-01 -1.000000000E-03 3.365572573E-02 -2.153015654E-03 6.118507486E-01
 -2.449357431E-01 -1.000000000E-03 3.358854497E-02 -2.151506032E-03 6.172856981E-01
 -2.448668111E-01 -1.000000000E-03 3.342436511E-02 -2.145765614E-03 6.303566133E-01
 -2.448390516E-01 -1.000000000E-03 3.335922972E-02 -2.143281999E-03 6.354589375E-01
 -2.447681124E-01 -1.000000000E-03 3.319521490E-02 -2.135204478E-03 6.481441548E-01
 -2.447388981E-01 -1.000000000E-03 3.312864740E-02 -2.131788847E-03 6.532053499E-01
 -2.446664807E-01 -1.000000000E-03 3.296597364E-02 -2.121550997E-03 6.653691356E-01
 -2.446373521E-01 -1.000000000E-03 3.290144692E-02 -2.117305510E-03 6.701137739E-01
 -2.445629815E-01 -1.000000000E-03 3.273895160E-02 -2.104951846E-03 6.819082102E-01
 -2.445323941E-01 -1.000000000E-03 3.267302346E-02 -2.099826144E-03 6.866102691E-01
 -2.444566191E-01 -1.000000000E-03 3.251185963E-02 -2.085589713E-03 6.979073800E-01
 -2.437396538E-01 -1.000000000E-03 3.111362168E-02 -1.909780111E-03 7.852134325E-01
 -2.436528470E-01 -1.000000000E-03 3.095719932E-02 -1.884837224E-03 7.938315339E-01
 -2.436172202E-01 -1.000000000E-03 3.089367815E-02 -1.874675149E-03 7.972640980E-01
 -2.435291240E-01 -1.000000000E-03 3.073823709E-02 -1.848858844E-03 8.054990542E-01
 -2.437737418E-01 -1.000000000E-03 3.117570828E-02 -1.919307668E-03 7.817429462E-01
 -2.438587354E-01 -1.000000000E-03 3.133219483E-02 -1.943051291E-03 7.728257669E-01
 -2.438931411E-01 -1.000000000E-03 3.139624377E-02 -1.952269307E-03 7.691050182E-01
 -2.439769658E-01 -1.000000000E-03 3.155405505E-02 -1.974782300E-03 7.597564794E-01
 -2.444261933E-01 -1.000000000E-03 3.244798573E-02 -2.079789226E-03 7.023088821E-01
 -2.443485123E-01 -1.000000000E-03 3.228699570E-02 -2.063588668E-03 7.132555820E-01
 -2.443165954E-01 -1.000000000E-03 3.222168735E-02 -2.056900342E-03 7.176155062E-01
 -2.442376453E-01 -1.000000000E-03 3.206214328E-02 -2.039052491E-03 7.280785271E-01
 -2.440098853E-01 -1.000000000E-03 3.161673842E-02 -1.983260267E-03 7.559903109E-01
 -2.440919269E-01 -1.000000000E-03 3.177476126E-02 -2.004272261E-03 7.463179662E-01
 -2.442059171E-01 -1.000000000E-03 3.199880517E-02 -2.031819813E-03 7.321584605E-01
 -2.441251180E-01 -1.000000000E-03 3.183944571E-02 -2.012297642E-03 7.422840547E-01
 -2.434937603E-01 -1.000000000E-03 3.067647344E-02 -1.838407651E-03 8.087068547E-01
 -2.434033511E-01 -1.000000000E-03 3.052017487E-02 -1.811602069E-03 8.166997129E-01
 -2.433661405E-01 -1.000000000E-03 3.045648974E-02 -1.800292104E-03 8.198827822E-01
 -2.432738202E-01 -1.000000000E-03 3.030006303E-02 -1.772929308E-03 8.275632801E-01
 -2.432366033E-01 -1.000000000E-03 3.023761636E-02 -1.761879828E-03 8.305661039E-01
 -2.431409801E-01 -1.000000000E-03 3.007875014E-02 -1.733162072E-03 8.380686387E-01
 7.383765704E-01 -1.000000000E-03 -1.301604682E-01 1.177380101E-03 4.500899296E-01
 7.384609339E-01 -1.000000000E-03 -1.301883133E-01 1.664569214E-03 4.288231457E-01
 7.386058150E-01 -1.000000000E-03 -1.302361330E-01 2.580553061E-03 3.855031982E-01
 7.382764150E-01 -1.000000000E-03 -1.301274139E-01 8.056917435E-04 4.498389666E-01
 7.381268046E-01 -1.000000000E-03 -1.300780378E-01 1.397533322E-04 4.497573779E-01
 7.379490047E-01 -1.000000000E-03 -1.300193649E-01 -9.432743103E-06 4.494979530E-01
 7.378643997E-01 -1.000000000E-03 -1.299914457E-01 -7.223361919E-05 4.493735577E-01
 7.378008267E-01 -1.000000000E-03 -1.299704694E-01 -8.266415279E-05 4.492964090E-01
 7.375264585E-01 -1.000000000E-03 -1.298799431E-01 -1.440384369E-04 4.489522878E-01
 7.373230622E-01 -1.000000000E-03 -1.298128435E-01 -1.511352127E-04 4.487454134E-01
 7.370467685E-01 -1.000000000E-03 -1.297217056E-01 -1.615823464E-04 4.485108393E-01
 7.368556639E-01 -1.000000000E-03 -1.296586768E-01 -1.600603026E-04 4.483601160E-01
 7.365310226E-01 -1.000000000E-03 -1.295516237E-01 -1.557043853E-04 4.481407897E-01
 7.363644947E-01 -1.000000000E-03 -1.294967184E-01 -1.527800989E-04 4.480234773E-01
 7.359696676E-01 -1.000000000E-03 -1.293665684E-01 -1.463610454E-04 4.477619947E-01
 7.357839684E-01 -1.000000000E-03 -1.293053668E-01 -1.442723073E-04 4.476344593E-01
 7.353343422E-01 -1.000000000E-03 -1.291572169E-01 -1.402132753E-04 4.473358989E-01
 7.351323894E-01 -1.000000000E-03 -1.290906889E-01 -1.393908526E-04 4.472006754E-01
 7.346029992E-01 -1.000000000E-03 -1.289163414E-01 -1.381968531E-04 4.468412764E-01
 7.343611191E-01 -1.000000000E-03 -1.288367011E-01 -1.384263191E-04 4.466724268E-01
 7.337632309E-01 -1.000000000E-03 -1.286399016E-01 -1.392224182E-04 4.462707763E-01
 7.334942946E-01 -1.000000000E-03 -1.285514031E-01 -1.399237732E-04 4.460878555E-01
 7.327811934E-01 -1.000000000E-03 -1.283168224E-01 -1.422597993E-04 4.456198664E-01
 7.324552570E-01 -1.000000000E-03 -1.282096352E-01 -1.435311304E-04 4.454027199E-01
 7.316321166E-01 -1.000000000E-03 -1.279390415E-01 -1.470123790E-04 4.448337171E-01
 7.312740488E-01 -1.000000000E-03 -1.278213726E-01 -1.482136177E-04 4.445859086E-01
 7.302759791E-01 -1.000000000E-03 -1.274935338E-01 -1.514664286E-04 4.439132217E-01
 7.298690016E-01 -1.000000000E-03 -1.273599056E-01 -1.525516754E-04 4.436445546E-01
 7.287103120E-01 -1.000000000E-03 -1.269796612E-01 -1.558335370E-04 4.428572254E-01
 -2.347587272E-01 -1.000000000E-03 2.024780471E-02 1.533067406E-04 1.002036457E+00
 -2.346339568E-01 -1.000000000E-03 2.013346609E-02 1.700562127E-04 1.001752513E+00
 -2.343122463E-01 -1.000000000E-03 1.984120685E-02 2.120711281E-04 1.000932666E+00
 -2.341787963E-01 -1.000000000E-03 1.972100084E-02 2.290665991E-04 1.000539181E+00
 -2.338471774E-01 -1.000000000E-03 1.942489409E-02 2.700235357E-04 9.994629852E-01
 -2.337127984E-01 -1.000000000E-03 1.930591568E-02 2.860757136E-04 9.989649140E-01
 -2.333661820E-01 -1.000000000E-03 1.900170179E-02 3.262938563E-04 9.976428664E-01
 -2.332225420E-01 -1.000000000E-03 1.887670806E-02 3.423421986E-04 9.970446534E-01
 -2.328651006E-01 -1.000000000E-03 1.856839016E-02 3.814326203E-04 9.954390632E-01
 -2.327201941E-01 -1.000000000E-03 1.844445454E-02 3.966746207E-04 9.947637595E-01
 -2.323456574E-01 -1.000000000E-03 1.812693156E-02 4.349491438E-04 9.929317894E-01
 -2.321901191E-01 -1.000000000E-03 1.799619693E-02 4.504017459E-04 9.921281899E-01
 -2.318030195E-01 -1.000000000E-03 1.767369104E-02 4.880456113E-04 9.900616612E-01
 -2.316458710E-01 -1.000000000E-03 1.754387364E-02 5.026228123E-04 9.891845421E-01
 -2.312388847E-01 -1.000000000E-03 1.721063368E-02 5.394242856E-04 9.868650760E-01
 -2.310696443E-01 -1.000000000E-03 1.707324392E-02 5.542541889E-04 9.858530149E-01
 -2.350665337E-01 -1.000000000E-03 2.053225189E-02 1.109270870E-04 1.002596445E+00
 -2.351903557E-01 -1.000000000E-03 2.064767176E-02 9.334682529E-05 1.002773593E+00
 -2.347587272E-01 -1.000000000E-03 2.024780471E-02 1.533067406E-04 1.002036457E+00
 -2.354892674E-01 -1.000000000E-03 2.092865990E-02 5.037720675E-05 1.003063818E+00
 -2.463104713E-01 -1.000000000E-03 4.269810153E-02 1.492170383E-03 -5.084311205E-01
 -2.462871129E-01 -1.000000000E-03 4.287240289E-02 1.633561219E-03 -5.355782258E-01
 -2.462782000E-01 -1.000000000E-03 4.293510940E-02 1.682322339E-03 -5.449532628E-01
 -2.462495320E-01 -1.000000000E-03 4.312548762E-02 1.842262552E-03 -5.702443671E-01
 -2.463186871E-01 -1.000000000E-03 4.263299453E-02 1.441820434E-03 -4.986991741E-01
 -2.463396602E-01 -1.000000000E-03 4.245552943E-02 1.299076025E-03 -4.719086600E-01
 -2.463472561E-01 -1.000000000E-03 4.238660635E-02 1.245821428E-03 -4.616499454E-01
 -2.463654901E-01 -1.000000000E-03 4.220808034E-02 1.103573661E-03 -4.349759771E-01
 -2.463721918E-01 -1.000000000E-03 4.213686139E-02 1.049464096E-03 -4.243519465E-01
 -2.463874147E-01 -1.000000000E-03 4.196013699E-02 9.117914430E-04 -3.980005571E-01
 -2.463931001E-01 -1.000000000E-03 4.188742822E-02 8.579748514E-04 -3.871880792E-01
 -2.464056093E-01 -1.000000000E-03 4.170929618E-02 7.232480658E-04 -3.607456921E-01
 -2.464100157E-01 -1.000000000E-03 4.163860804E-02 6.723048720E-04 -3.502736987E-01
 -2.464197084E-01 -1.000000000E-03 4.146078203E-02 5.415032164E-04 -3.239783506E-01
 -2.464230960E-01 -1.000000000E-03 4.138818682E-02 4.906126676E-04 -3.133127484E-01
 -2.464300285E-01 -1.000000000E-03 4.120956687E-02 3.633152942E-04 -2.871364878E-01
 -2.464322229E-01 -1.000000000E-03 4.113883630E-02 3.151184491E-04 -2.768105150E-01
 -2.464363712E-01 -1.000000000E-03 4.096075882E-02 1.919671651E-04 -2.508802865E-01
 -2.464375005E-01 -1.000000000E-03 4.088810799E-02 1.438801765E-04 -2.403794090E-01
 -2.462407445E-01 -1.000000000E-03 4.318148728E-02 1.887112273E-03 -5.789489820E-01
 -2.462269079E-01 -1.000000000E-03 4.326327833E-02 1.960367570E-03 -5.912081526E-01
 -2.462019380E-01 -1.000000000E-03 4.341204442E-02 2.095736284E-03 -6.146841273E-01
 -2.461745227E-01 -1.000000000E-03 4.356037940E-02 2.218159775E-03 -6.383376586E-01
 -2.460597615E-01 -1.000000000E-03 4.412005559E-02 2.668341885E-03 -7.179274894E-01
 -2.460974195E-01 -1.000000000E-03 4.394827518E-02 2.519382374E-03 -6.925972387E-01
 -2.461104888E-01 -1.000000000E-03 4.388630171E-02 2.470438120E-03 -6.839984859E-01
 -2.461486574E-01 -1.000000000E-03 4.369759843E-02 2.325062588E-03 -6.591512710E-01
 -2.460452167E-01 -1.000000000E-03 4.418404656E-02 2.721748370E-03 -7.268638373E-01
 -2.460042358E-01 -1.000000000E-03 4.435798510E-02 2.873420293E-03 -7.512035987E-01
 -2.459878037E-01 -1.000000000E-03 4.442534905E-02 2.929731088E-03 -7.606462563E-01
 -2.459438847E-01 -1.000000000E-03 4.459935031E-02 3.080146110E-03 -7.848614078E-01
 -2.459258278E-01 -1.000000000E-03 4.466856166E-02 3.137005727E-03 -7.944935863E-01
 -2.458796918E-01 -1.000000000E-03 4.483984537E-02 3.284365547E-03 -8.181848680E-01
 -2.458601715E-01 -1.000000000E-03 4.491010133E-02 3.342396999E-03 -8.278868416E-01
 -2.458109991E-01 -1.000000000E-03 4.508178350E-02 3.490895725E-03 -8.514762033E-01
 -2.457909676E-01 -1.000000000E-03 4.514969930E-02 3.546985747E-03 -8.607551690E-01
 -2.457392483E-01 -1.000000000E-03 4.532012878E-02 3.693579247E-03 -8.839080340E-01
 -2.457176035E-01 -1.000000000E-03 4.538949250E-02 3.751298962E-03 -8.933001938E-01
 -2.456630139E-01 -1.000000000E-03 4.555971636E-02 3.898997326E-03 -9.162291894E-01
 -2.456408806E-01 -1.000000000E-03 4.562692622E-02 3.954647065E-03 -9.252167438E-01
 -2.455838534E-01 -1.000000000E-03 4.579568104E-02 4.099439242E-03 -9.476284566E-01
 -2.455600580E-01 -1.000000000E-03 4.586433159E-02 4.156222522E-03 -9.567029222E-01
 -2.455001977E-01 -1.000000000E-03 4.603277525E-02 4.301367749E-03 -9.788251536E-01
 -2.454759862E-01 -1.000000000E-03 4.609926911E-02 4.355844372E-03 -9.874752469E-01
 -2.454137549E-01 -1.000000000E-03 4.626617407E-02 4.497368666E-03 -1.009036397E+00
 -2.453878463E-01 -1.000000000E-03 4.633405473E-02 4.552949335E-03 -1.017760879E+00
 -2.453228045E-01 -1.000000000E-03 4.650058108E-02 4.694113821E-03 -1.038970856E+00
 -2.452965626E-01 -1.000000000E-03 4.656627196E-02 4.746902795E-03 -1.047254447E+00
 -2.452291816E-01 -1.000000000E-03 4.673126883E-02 4.882956054E-03 -1.067824916E+00
 -2.452012464E-01 -1.000000000E-03 4.679820013E-02 4.936124493E-03 -1.076114372E+00
 -2.451308878E-01 -1.000000000E-03 4.696318154E-02 5.071289409E-03 -1.096230419E+00
 -2.451028427E-01 -1.000000000E-03 4.702756824E-02 5.120278919E-03 -1.103942185E+00
 -2.450296028E-01 -1.000000000E-03 4.719226726E-02 5.251224077E-03 -1.123556542E+00
 -2.450013986E-01 -1.000000000E-03 4.725441491E-02 5.297518697E-03 -1.130813355E+00
 -2.449254861E-01 -1.000000000E-03 4.741835120E-02 5.417727090E-03 -1.149595656E+00
 -2.448952167E-01 -1.000000000E-03 4.748243288E-02 5.462827885E-03 -1.156843160E+00
 -2.448176452E-01 -1.000000000E-03 4.764348960E-02 5.575635820E-03 -1.174499054E+00
 -2.447856536E-01 -1.000000000E-03 4.770864897E-02 5.619306508E-03 -1.181543802E+00
 -2.447059305E-01 -1.000000000E-03 4.786800612E-02 5.730030949E-03 -1.198446962E+00
 -2.446738127E-01 -1.000000000E-03 4.793103855E-02 5.771996160E-03 -1.205026304E+00
 -2.445914781E-01 -1.000000000E-03 4.808972266E-02 5.877865815E-03 -1.221192894E+00
 -2.445575364E-01 -1.000000000E-03 4.815397819E-02 5.919047602E-03 -1.227638886E+00
 -2.444732008E-01 -1.000000000E-03 4.831086041E-02 6.022456790E-03 -1.243073903E+00
 -2.444392373E-01 -1.000000000E-03 4.837296507E-02 6.062003288E-03 -1.249092207E+00
 -2.443523522E-01 -1.000000000E-03 4.852916919E-02 6.160776076E-03 -1.263867239E+00
 -2.443165683E-01 -1.000000000E-03 4.859243137E-02 6.199448181E-03 -1.269762479E+00
 -2.442277854E-01 -1.000000000E-03 4.874682896E-02 6.295710046E-03 -1.283869819E+00
 -2.441920701E-01 -1.000000000E-03 4.880794613E-02 6.332789785E-03 -1.289372251E+00
 -2.441008152E-01 -1.000000000E-03 4.896163215E-02 6.424171436E-03 -1.302867498E+00
 -2.440632715E-01 -1.000000000E-03 4.902386906E-02 6.460249873E-03 -1.308251903E+00
 -2.439702298E-01 -1.000000000E-03 4.917573060E-02 6.549039879E-03 -1.321123990E+00
 -2.461595515E-01 -1.000000000E-03 4.364197028E-02 2.281482021E-03 -6.503821882E-01
 4.831485536E-01 -1.000000000E-03 -1.172890433E-01 1.154426866E-03 3.589553744E-01
 4.763639466E-01 -1.000000000E-03 -1.168152821E-01 1.163854302E-03 3.582637632E-01
 4.860122996E-01 -1.000000000E-03 -1.174870577E-01 1.150349115E-03 3.592378970E-01
 4.927822710E-01 -1.000000000E-03 -1.179505594E-01 1.139932655E-03 3.599615183E-01
 3.574162518E-01 -1.000000000E-03 -1.074123701E-01 1.322413141E-03 3.525748967E-01
 3.641755143E-01 -1.000000000E-03 -1.080051492E-01 1.311172415E-03 3.525295300E-01
 3.545158078E-01 -1.000000000E-03 -1.071556839E-01 1.326233667E-03 3.526150213E-01
 3.478024810E-01 -1.000000000E-03 -1.065562003E-01 1.333753189E-03 3.527684412E-01
 4.237295868E-01 -1.000000000E-03 -1.129159406E-01 1.233701215E-03 3.541486854E-01
 4.169276107E-01 -1.000000000E-03 -1.123825062E-01 1.242759239E-03 3.537901628E-01
 4.266897074E-01 -1.000000000E-03 -1.131459300E-01 1.230175035E-03 3.543498442E-01
 4.334880729E-01 -1.000000000E-03 -1.136692432E-01 1.219830218E-03 3.547061473E-01
 4.138901229E-01 -1.000000000E-03 -1.121420573E-01 1.246122220E-03 3.536310305E-01
 4.071087831E-01 -1.000000000E-03 -1.116002619E-01 1.256082095E-03 3.533148816E-01
 4.733763415E-01 -1.000000000E-03 -1.166045849E-01 1.168982149E-03 3.579595646E-01
 4.665880918E-01 -1.000000000E-03 -1.161211669E-01 1.179601471E-03 3.573003022E-01
 4.957981015E-01 -1.000000000E-03 -1.181549553E-01 1.137185937E-03 3.603474279E-01
 5.026333354E-01 -1.000000000E-03 -1.186134848E-01 1.127635507E-03 3.612752388E-01
 3.672019672E-01 -1.000000000E-03 -1.082681416E-01 1.306867523E-03 3.525534841E-01
 3.739766504E-01 -1.000000000E-03 -1.088515017E-01 1.298281757E-03 3.525972948E-01
 5.258170740E-01 -1.000000000E-03 -1.201198674E-01 1.091033697E-03 3.644883142E-01
 4.365952974E-01 -1.000000000E-03 -1.139061611E-01 1.215817046E-03 3.548861604E-01
 4.434520324E-01 -1.000000000E-03 -1.144239967E-01 1.207342268E-03 3.553602271E-01
 4.040657280E-01 -1.000000000E-03 -1.113548572E-01 1.261612384E-03 3.532463214E-01
 3.971921842E-01 -1.000000000E-03 -1.107953678E-01 1.271269155E-03 3.530748647E-01
 5.057301383E-01 -1.000000000E-03 -1.188190546E-01 1.123079607E-03 3.616491270E-01
 5.126993835E-01 -1.000000000E-03 -1.192768024E-01 1.112093492E-03 3.625306297E-01
 4.635443345E-01 -1.000000000E-03 -1.159022647E-01 1.183450229E-03 3.570184590E-01
 4.566645883E-01 -1.000000000E-03 -1.154026222E-01 1.191198267E-03 3.563875860E-01
 5.227173083E-01 -1.000000000E-03 -1.199228124E-01 1.095540415E-03 3.640035952E-01
 5.157413909E-01 -1.000000000E-03 -1.194744550E-01 1.107134250E-03 3.629531083E-01
 3.770605522E-01 -1.000000000E-03 -1.091145997E-01 1.294905422E-03 3.525999238E-01
 3.839172792E-01 -1.000000000E-03 -1.096941796E-01 1.286858416E-03 3.527365152E-01
 4.465829963E-01 -1.000000000E-03 -1.146581727E-01 1.203920687E-03 3.555352511E-01
 4.534490033E-01 -1.000000000E-03 -1.151667599E-01 1.194268671E-03 3.560740943E-01
 3.939937478E-01 -1.000000000E-03 -1.105325409E-01 1.275948809E-03 3.529950067E-01
 3.871797422E-01 -1.000000000E-03 -1.099673443E-01 1.284781164E-03 3.528310734E-01
 5.455468963E-01 -1.000000000E-03 -1.213423484E-01 1.061596291E-03 3.676511017E-01
 5.523793568E-01 -1.000000000E-03 -1.217528805E-01 1.050088559E-03 3.688819486E-01
 5.426084223E-01 -1.000000000E-03 -1.211637521E-01 1.065744596E-03 3.671430638E-01
 5.357870097E-01 -1.000000000E-03 -1.207444635E-01 1.075404400E-03 3.659795857E-01
 5.554118908E-01 -1.000000000E-03 -1.219329673E-01 1.045951481E-03 3.694548719E-01
 5.622309771E-01 -1.000000000E-03 -1.223331726E-01 1.035405566E-03 3.707397331E-01
 5.327103330E-01 -1.000000000E-03 -1.205532011E-01 1.080077419E-03 3.654949117E-01
 5.258170740E-01 -1.000000000E-03 -1.201198674E-01 1.091033697E-03 3.644883142E-01
 5.652791085E-01 -1.000000000E-03 -1.225099098E-01 1.030173662E-03 3.713117810E-01
 5.721795716E-01 -1.000000000E-03 -1.229051279E-01 1.017476627E-03 3.726860491E-01
 5.853479703E-01 -1.000000000E-03 -1.236403786E-01 9.992185465E-04 3.755150237E-01
 5.822782529E-01 -1.000000000E-03 -1.234712146E-01 1.003590355E-03 3.748373258E-01
 5.753716601E-01 -1.000000000E-03 -1.230856396E-01 1.013702790E-03 3.733585674E-01
 7.287103120E-01 -1.000000000E-03 -1.269796612E-01 -1.558335370E-04 4.428572254E-01
 7.283100906E-01 -1.000000000E-03 -1.268483806E-01 -1.565802122E-04 4.425846592E-01
 7.269161508E-01 -1.000000000E-03 -1.263914234E-01 -1.588498872E-04 4.416542922E-01
 7.264957764E-01 -1.000000000E-03 -1.262536891E-01 -1.591180256E-04 4.413704767E-01
 7.248698319E-01 -1.000000000E-03 -1.257213333E-01 -1.601540965E-04 4.402802713E-01
 7.244763023E-01 -1.000000000E-03 -1.255925620E-01 -1.602993692E-04 4.400198444E-01
 7.225225866E-01 -1.000000000E-03 -1.249537793E-01 -1.602105688E-04 4.387233012E-01
 7.221225848E-01 -1.000000000E-03 -1.248230840E-01 -1.600667554E-04 4.384559175E-01
 7.198925479E-01 -1.000000000E-03 -1.240950922E-01 -1.586901289E-04 4.370047630E-01
 7.195929943E-01 -1.000000000E-03 -1.239973801E-01 -1.585706096E-04 4.368100260E-01
 7.170235948E-01 -1.000000000E-03 -1.231600256E-01 -1.577025189E-04 4.350852994E-01
 7.166667027E-01 -1.000000000E-03 -1.230438223E-01 -1.576224521E-04 4.348448497E-01
 7.138079408E-01 -1.000000000E-03 -1.221139592E-01 -1.528573954E-04 4.329157538E-01
 7.132479863E-01 -1.000000000E-03 -1.219320200E-01 -1.524857150E-04 4.325370821E-01
 7.101393113E-01 -1.000000000E-03 -1.209230926E-01 -1.489203738E-04 4.304698798E-01
 7.093086730E-01 -1.000000000E-03 -1.206538388E-01 -1.483590639E-04 4.298973210E-01
 7.059457024E-01 -1.000000000E-03 -1.195651261E-01 -1.427779350E-04 4.275628777E-01
 7.047671078E-01 -1.000000000E-03 -1.191841161E-01 -1.416658150E-04 4.267430657E-01
 7.010012808E-01 -1.000000000E-03 -1.179685377E-01 -1.349999768E-04 4.241034328E-01
 6.993844171E-01 -1.000000000E-03 -1.174474711E-01 -1.332856116E-04 4.229472489E-01
 6.953436511E-01 -1.000000000E-03 -1.161475314E-01 -1.251127652E-04 4.200358874E-01
 6.934198798E-01 -1.000000000E-03 -1.155297330E-01 -1.220966792E-04 4.186345078E-01
 6.890429542E-01 -1.000000000E-03 -1.141268557E-01 -1.119206697E-04 4.153910690E-01
 6.869078534E-01 -1.000000000E-03 -1.134438010E-01 -1.087464031E-04 4.137951037E-01
 6.822123467E-01 -1.000000000E-03 -1.119448167E-01 -9.808743491E-05 4.102404641E-01
 6.799736906E-01 -1.000000000E-03 -1.112315695E-01 -9.381476529E-05 4.085181710E-01
 6.748641218E-01 -1.000000000E-03 -1.096072897E-01 -8.075771297E-05 4.045185929E-01
 6.724365893E-01 -1.000000000E-03 -1.088372473E-01 -7.575577315E-05 4.026033352E-01
 6.669161343E-01 -1.000000000E-03 -1.070903098E-01 -6.148388269E-05 3.982115351E-01
 6.642950548E-01 -1.000000000E-03 -1.062627973E-01 -5.528101610E-05 3.960997045E-01
 6.583222185E-01 -1.000000000E-03 -1.043818558E-01 -3.847236444E-05 3.912048113E-01
 6.112364761E-01 -1.000000000E-03 -8.977433546E-02 8.662494014E-05 3.517935186E-01
 6.178183331E-01 -1.000000000E-03 -9.179321174E-02 6.958560600E-05 3.573616837E-01
 6.206722177E-01 -1.000000000E-03 -9.267090009E-02 6.284858767E-05 3.597708994E-01
 6.272004476E-01 -1.000000000E-03 -9.468377342E-02 4.516547070E-05 3.653076770E-01
 6.300725136E-01 -1.000000000E-03 -9.557167486E-02 3.844648803E-05 3.677452133E-01
 6.366070051E-01 -1.000000000E-03 -9.759708844E-02 2.048361362E-05 3.732304427E-01
 6.396624954E-01 -1.000000000E-03 -9.854673965E-02 1.214631443E-05 3.757757530E-01
 6.461130973E-01 -1.000000000E-03 -1.005569070E-01 -6.092868536E-06 3.811280270E-01
 6.554007512E-01 -1.000000000E-03 -1.034641455E-01 -3.126888832E-05 3.887981774E-01
 6.491290617E-01 -1.000000000E-03 -1.014993041E-01 -1.354452566E-05 3.836290842E-01
 6.084524323E-01 -1.000000000E-03 -8.892256240E-02 9.311641642E-05 3.494399084E-01
 6.017772171E-01 -1.000000000E-03 -8.688559576E-02 1.120783783E-04 3.437608012E-01
 5.990793893E-01 -1.000000000E-03 -8.606446058E-02 1.188282063E-04 3.414878775E-01
 5.923873663E-01 -1.000000000E-03 -8.403282189E-02 1.363356638E-04 3.358726175E-01
 -2.431409801E-01 -1.000000000E-03 3.007875014E-02 -1.733162072E-03 8.380686387E-01
 -2.431014492E-01 -1.000000000E-03 3.001370998E-02 -1.721571444E-03 8.410903595E-01
 -2.430031741E-01 -1.000000000E-03 2.985359675E-02 -1.691550587E-03 8.483283565E-01
 -2.429634162E-01 -1.000000000E-03 2.978943570E-02 -1.679113289E-03 8.511668490E-01
 -2.428610650E-01 -1.000000000E-03 2.962585994E-02 -1.647363337E-03 8.582706276E-01
 -2.428186720E-01 -1.000000000E-03 2.955875072E-02 -1.634163388E-03 8.610968928E-01
 -2.427133087E-01 -1.000000000E-03 2.939355911E-02 -1.601273725E-03 8.679424763E-01
 -2.426706650E-01 -1.000000000E-03 2.932732331E-02 -1.588006394E-03 8.706194304E-01
 -2.425609665E-01 -1.000000000E-03 2.915855445E-02 -1.553646778E-03 8.773065409E-01
 -2.425155424E-01 -1.000000000E-03 2.908932102E-02 -1.539378681E-03 8.799771285E-01
 -2.424027461E-01 -1.000000000E-03 2.891902015E-02 -1.504124149E-03 8.863854259E-01
 -2.423570390E-01 -1.000000000E-03 2.885064091E-02 -1.489899187E-03 8.888943894E-01
 -2.422395648E-01 -1.000000000E-03 2.867653382E-02 -1.453605048E-03 8.951390557E-01
 -2.421907439E-01 -1.000000000E-03 2.860483724E-02 -1.438551765E-03 8.976469087E-01
 -2.420697260E-01 -1.000000000E-03 2.842875972E-02 -1.401863754E-03 9.035801327E-01
 -2.420205200E-01 -1.000000000E-03 2.835780714E-02 -1.386794443E-03 9.059193107E-01
 -2.418940070E-01 -1.000000000E-03 2.817705860E-02 -1.348955744E-03 9.117622191E-01
 -2.418414055E-01 -1.000000000E-03 2.810258079E-02 -1.333225079E-03 9.140894162E-01
 -2.417107417E-01 -1.000000000E-03 2.791926570E-02 -1.293866910E-03 9.196986925E-01
 -2.416576919E-01 -1.000000000E-03 2.784549529E-02 -1.278069225E-03 9.218559763E-01
 -2.415211715E-01 -1.000000000E-03 2.765737064E-02 -1.238215188E-03 9.272343101E-01
 -2.414645362E-01 -1.000000000E-03 2.758002008E-02 -1.221924384E-03 9.293648761E-01
 -2.413241113E-01 -1.000000000E-03 2.738996744E-02 -1.182317442E-03 9.344802468E-01
 -2.412672277E-01 -1.000000000E-03 2.731365829E-02 -1.166201924E-03 9.364738810E-01
 -2.411213921E-01 -1.000000000E-03 2.711978387E-02 -1.124345360E-03 9.413656410E-01
 -2.410610268E-01 -1.000000000E-03 2.704024631E-02 -1.107212829E-03 9.433098177E-01
 -2.409115884E-01 -1.000000000E-03 2.684511557E-02 -1.065123754E-03 9.478626348E-01
 -2.408512177E-01 -1.000000000E-03 2.676697582E-02 -1.048170635E-03 9.496158481E-01
 -2.406963526E-01 -1.000000000E-03 2.656832121E-02 -1.005708884E-03 9.539450034E-01
 -2.406323905E-01 -1.000000000E-03 2.648699498E-02 -9.881987915E-04 9.556372960E-01
 -2.404736226E-01 -1.000000000E-03 2.628692506E-02 -9.466171383E-04 9.596725967E-01
 -2.404095094E-01 -1.000000000E-03 2.620683409E-02 -9.300078094E-04 9.612357561E-01
 -2.402447299E-01 -1.000000000E-03 2.600281703E-02 -8.877328190E-04 9.650724465E-01
 -2.401766602E-01 -1.000000000E-03 2.591927379E-02 -8.702421608E-04 9.665746575E-01
 -2.400077383E-01 -1.000000000E-03 2.571378638E-02 -8.277473611E-04 9.700884300E-01
 -2.399395981E-01 -1.000000000E-03 2.563160914E-02 -8.105477838E-04 9.714212928E-01
 -2.397643520E-01 -1.000000000E-03 2.542212041E-02 -7.681086873E-04 9.747294002E-01
 -2.396920051E-01 -1.000000000E-03 2.533638409E-02 -7.509753120E-04 9.760272898E-01
 -2.395120909E-01 -1.000000000E-03 2.512504279E-02 -7.081263188E-04 9.790573114E-01
 -2.394393886E-01 -1.000000000E-03 2.504036800E-02 -6.907253150E-04 9.802096490E-01
 -2.392519877E-01 -1.000000000E-03 2.482401644E-02 -6.469569100E-04 9.830015200E-01
 -2.391744500E-01 -1.000000000E-03 2.473526745E-02 -6.289384201E-04 9.840726467E-01
 -2.389816163E-01 -1.000000000E-03 2.451648054E-02 -5.857184836E-04 9.865812642E-01
 -2.389037460E-01 -1.000000000E-03 2.442887700E-02 -5.684388540E-04 9.875272641E-01
 -2.387026982E-01 -1.000000000E-03 2.420466887E-02 -5.249220336E-04 9.898297295E-01
 -2.386198394E-01 -1.000000000E-03 2.411304958E-02 -5.071385638E-04 9.907031196E-01
 -2.384128206E-01 -1.000000000E-03 2.388613313E-02 -4.639037807E-04 9.927200065E-01
 -2.383294342E-01 -1.000000000E-03 2.379549646E-02 -4.466641177E-04 9.934674438E-01
 -2.381126553E-01 -1.000000000E-03 2.356191644E-02 -4.032062089E-04 9.952716170E-01
 -2.380229868E-01 -1.000000000E-03 2.346611268E-02 -3.854169717E-04 9.959499811E-01
 -2.377984699E-01 -1.000000000E-03 2.322832278E-02 -3.418469705E-04 9.975014703E-01
 -2.377073415E-01 -1.000000000E-03 2.313261361E-02 -3.243360646E-04 9.980596335E-01
 -2.374707017E-01 -1.000000000E-03 2.288624580E-02 -2.794863240E-04 9.993752601E-01
 -2.373722553E-01 -1.000000000E-03 2.278461894E-02 -2.610389130E-04 9.998522790E-01
 -2.371267716E-01 -1.000000000E-03 2.253341467E-02 -2.161975505E-04 1.000876370E+00
 -2.370269137E-01 -1.000000000E-03 2.243208481E-02 -1.981015870E-04 1.001235618E+00
 -2.367688017E-01 -1.000000000E-03 2.217244017E-02 -1.529053739E-04 1.002009630E+00
 -2.366614623E-01 -1.000000000E-03 2.206537162E-02 -1.343360910E-04 1.002268504E+00
 -2.363946863E-01 -1.000000000E-03 2.180155885E-02 -9.004500338E-05 1.002755467E+00
 -2.362863822E-01 -1.000000000E-03 2.169534179E-02 -7.248518892E-05 1.002897217E+00
 -2.360075741E-01 -1.000000000E-03 2.142423134E-02 -2.831116357E-05 1.003144446E+00
 -2.358920342E-01 -1.000000000E-03 2.131281621E-02 -1.018960792E-05 1.003182482E+00
 -2.356052864E-01 -1.000000000E-03 2.103866408E-02 3.323820697E-05 1.003138976E+00
 -2.354892674E-01 -1.000000000E-03 2.092865990E-02 5.037720675E-05 1.003063818E+00
 -2.463490789E-01 -1.000000000E-03 3.896037676E-02 -1.000035963E-03 2.811067497E-02
 -2.463669128E-01 -1.000000000E-03 3.913980867E-02 -9.056138509E-04 3.978773830E-03
 -2.463418445E-01 -1.000000000E-03 3.889275418E-02 -1.034479444E-03 3.716392497E-02
 -2.463213055E-01 -1.000000000E-03 3.871354326E-02 -1.123879756E-03 6.113004473E-02
 -2.463126101E-01 -1.000000000E-03 3.864242373E-02 -1.158121168E-03 7.056306722E-02
 -2.462896663E-01 -1.000000000E-03 3.846574662E-02 -1.240858848E-03 9.392562010E-02
 -2.462797274E-01 -1.000000000E-03 3.839343639E-02 -1.273456356E-03 1.034279259E-01
 -2.462541981E-01 -1.000000000E-03 3.821734153E-02 -1.350505314E-03 1.263920850E-01
 -2.462435223E-01 -1.000000000E-03 3.814729822E-02 -1.379950616E-03 1.354521503E-01
 -2.462153115E-01 -1.000000000E-03 3.797082778E-02 -1.451460078E-03 1.581627823E-01
 -2.462033161E-01 -1.000000000E-03 3.789913035E-02 -1.479479792E-03 1.673012121E-01
 -2.461726697E-01 -1.000000000E-03 3.772369096E-02 -1.545321591E-03 1.894664605E-01
 -2.461599940E-01 -1.000000000E-03 3.765403907E-02 -1.570432277E-03 1.981758602E-01
 -2.461267534E-01 -1.000000000E-03 3.747842885E-02 -1.630800545E-03 2.199968719E-01
 -2.461127317E-01 -1.000000000E-03 3.740710440E-02 -1.654466357E-03 2.287575277E-01
 -2.460771481E-01 -1.000000000E-03 3.723252928E-02 -1.709415726E-03 2.499907425E-01
 -2.460625656E-01 -1.000000000E-03 3.716341533E-02 -1.730330596E-03 2.583020574E-01
 -2.460243495E-01 -1.000000000E-03 3.698824517E-02 -1.780254157E-03 2.791917300E-01
 -2.460085821E-01 -1.000000000E-03 3.691826968E-02 -1.799495294E-03 2.874392582E-01
 -2.459680744E-01 -1.000000000E-03 3.674398964E-02 -1.844673405E-03 3.077506837E-01
 -2.459517388E-01 -1.000000000E-03 3.667577384E-02 -1.861561851E-03 3.156029779E-01
 -2.459088737E-01 -1.000000000E-03 3.650187668E-02 -1.901493975E-03 3.354621040E-01
 -2.458910358E-01 -1.000000000E-03 3.643152224E-02 -1.917089027E-03 3.433867642E-01
 -2.458461227E-01 -1.000000000E-03 3.625912478E-02 -1.952292037E-03 3.625675622E-01
 -2.458278399E-01 -1.000000000E-03 3.619076091E-02 -1.965665063E-03 3.700759869E-01
 -2.457805514E-01 -1.000000000E-03 3.601839137E-02 -1.996569037E-03 3.888269021E-01
 -2.457608718E-01 -1.000000000E-03 3.594842286E-02 -2.008580158E-03 3.963329115E-01
 -2.457115658E-01 -1.000000000E-03 3.577729424E-02 -2.035040575E-03 4.144546575E-01
 -2.456915403E-01 -1.000000000E-03 3.570939204E-02 -2.045045788E-03 4.215464499E-01
 -2.456399161E-01 -1.000000000E-03 3.553828844E-02 -2.067553554E-03 4.392350111E-01
 -2.456184870E-01 -1.000000000E-03 3.546883015E-02 -2.076253080E-03 4.463112977E-01