TITLE     = "Surface mesh and solution"
VARIABLES = "x"
"y"
"z"
"cfx"
"Cp"
ZONE T="Slice: Y=-0.001"
STRANDID=0, SOLUTIONTIME=0
Nodes=1654, Elements=1653, ZONETYPE=FELineSeg
DATAPACKING=POINT
DT=(DOUBLE DOUBLE DOUBLE DOUBLE DOUBLE )
0.1651779100	-0.0009999500	0.0433442180	0.0018741856	-0.0436039600
0.1687172800	-0.0009999500	0.0428865660	0.0018560116	-0.0403458100
0.1688791400	-0.0009999500	0.0428655590	0.0018548545	-0.0401977520
0.1708010900	-0.0009999500	0.0426148250	0.0018449427	-0.0384381080
0.1726222800	-0.0009999500	0.0423772780	0.0018317992	-0.0367766020
0.1727714200	-0.0009999500	0.0423577280	0.0018312191	-0.0366395790
0.1763799000	-0.0009999500	0.0418829020	0.0018034811	-0.0333546400
0.1770124900	-0.0009999500	0.0417992250	0.0018020123	-0.0327691320
0.1801604600	-0.0009999500	0.0413813630	0.0017877078	-0.0299094470
0.1813959000	-0.0009999500	0.0412164590	0.0017870733	-0.0287896260
0.1839547600	-0.0009999500	0.0408738810	0.0017725223	-0.0264639540
0.1856752500	-0.0009999500	0.0406422800	0.0017713513	-0.0248535630
0.1877377500	-0.0009999500	0.0403638300	0.0017579309	-0.0229783210
0.1899441800	-0.0009999500	0.0400643530	0.0017506372	-0.0209770890
0.1915672000	-0.0009999500	0.0398434400	0.0017407246	-0.0194914750
0.1941943200	-0.0009999500	0.0394839380	0.0017306374	-0.0171297550
0.1954162400	-0.0009999500	0.0393162850	0.0017223569	-0.0160325100
0.1983638300	-0.0009999500	0.0389097710	0.0017125484	-0.0133498070
0.1991042800	-0.0009999500	0.0388073700	0.0017075824	-0.0126840290
0.2024802400	-0.0009999500	0.0383382660	0.0016918225	-0.0096733905
0.2028088900	-0.0009999500	0.0382924640	0.0016898537	-0.0093779126
0.2067505300	-0.0009999500	0.0377405810	0.0016709952	-0.0058925110
0.2067942300	-0.0009999500	0.0377344410	0.0016707251	-0.0058537237
0.2071256500	-0.0009999500	0.0376876700	0.0016694610	-0.0055594682
0.2109100100	-0.0009999500	0.0371536840	0.0016447518	-0.0022087074
0.2113926900	-0.0009999500	0.0370852720	0.0016456739	-0.0017812882
0.2151733300	-0.0009999500	0.0365474710	0.0016326189	0.0015318086
0.2154946200	-0.0009999500	0.0365016530	0.0016293663	0.0018109677
0.2173888700	-0.0009999500	0.0362300430	0.0016251548	0.0035028118
0.2197056400	-0.0009999500	0.0358979400	0.0016111412	0.0055630300
0.2201571300	-0.0009999500	0.0358328860	0.0016097870	0.0059634726
0.2239559900	-0.0009999500	0.0352840270	0.0015895108	0.0093568051
0.2250111000	-0.0009999500	0.0351308210	0.0015860971	0.0102884970
0.2281718600	-0.0009999500	0.0346706250	0.0015700957	0.0130512570
0.2297496100	-0.0009999500	0.0344398320	0.0015638832	0.0144364820
0.2324110900	-0.0009999500	0.0340494070	0.0015532755	0.0167678020
0.2344768300	-0.0009999500	0.0337450060	0.0015471770	0.0185837730
0.2366729200	-0.0009999500	0.0334204660	0.0015371198	0.0205070190
0.2392489600	-0.0009999500	0.0330380910	0.0015290041	0.0227643750
0.2409223600	-0.0009999500	0.0327890140	0.0015200765	0.0242198040
0.2443421200	-0.0009999500	0.0322776470	0.0015073206	0.0271946210
0.2452859700	-0.0009999500	0.0321361350	0.0014983598	0.0280105970
0.2497076700	-0.0009999500	0.0314700190	0.0014838806	0.0318803970
0.2499435400	-0.0009999500	0.0314343610	0.0014835395	0.0320842820
0.2534673500	-0.0009999500	0.0308995950	0.0014719036	0.0351581830
0.2545869400	-0.0009999500	0.0307297130	0.0014669985	0.0361322050
0.2546562000	-0.0009999500	0.0307191610	0.0014667059	0.0361918620
0.2591722300	-0.0009999500	0.0300290100	0.0014490155	0.0400425490
0.2594208700	-0.0009999500	0.0299908760	0.0014479076	0.0402560050
0.2638176700	-0.0009999500	0.0293142910	0.0014295551	0.0439816230
0.2641472800	-0.0009999500	0.0292633940	0.0014280102	0.0442605060
0.2686117000	-0.0009999500	0.0285716840	0.0014073652	0.0480470960
0.2689598500	-0.0009999500	0.0285175540	0.0014059631	0.0483408380
0.2734735600	-0.0009999500	0.0278134070	0.0013898081	0.0521536950
0.2740013000	-0.0009999500	0.0277307820	0.0013879151	0.0525992480
0.2783901700	-0.0009999500	0.0270413830	0.0013732754	0.0562970560
0.2791257500	-0.0009999500	0.0269254220	0.0013705623	0.0569186770
0.2833686200	-0.0009999500	0.0262543970	0.0013551951	0.0605057250
0.2842528200	-0.0009999500	0.0261140630	0.0013517730	0.0612466190
0.2884607600	-0.0009999500	0.0254440440	0.0013375469	0.0647594110
0.2895441900	-0.0009999500	0.0252709130	0.0013337059	0.0656588450
0.2935551100	-0.0009999500	0.0246279520	0.0013201532	0.0689797550
0.2948972900	-0.0009999500	0.0244120300	0.0013154459	0.0700899210
0.2985844000	-0.0009999500	0.0238170620	0.0013033799	0.0731441600
0.3001611800	-0.0009999500	0.0235617550	0.0012973879	0.0744506420
0.3036091000	-0.0009999500	0.0230017990	0.0012845344	0.0773037300
0.3053572200	-0.0009999500	0.0227169640	0.0012784899	0.0787471230
0.3086504600	-0.0009999500	0.0221787690	0.0012657670	0.0814508050
0.3105591500	-0.0009999500	0.0218658410	0.0012586255	0.0830117170
0.3137134300	-0.0009999500	0.0213471690	0.0012494887	0.0855961440
0.3157908300	-0.0009999500	0.0210045020	0.0012423403	0.0872838200
0.3188830600	-0.0009999500	0.0204929020	0.0012331538	0.0897854790
0.3210528500	-0.0009999500	0.0201328300	0.0012267896	0.0915477650
0.3241022200	-0.0009999500	0.0196252350	0.0012174944	0.0940022990
0.3263320300	-0.0009999500	0.0192529930	0.0012093114	0.0957958030
0.3293867100	-0.0009999500	0.0187414420	0.0012015924	0.0982693880
0.3316515100	-0.0009999500	0.0183611030	0.0011931799	0.1000843700
0.3348753500	-0.0009999500	0.0178179570	0.0011837191	0.1026657700
0.3370389000	-0.0009999500	0.0174524600	0.0011767595	0.1044070300
0.3404704600	-0.0009999500	0.0168708170	0.0011660330	0.1071424900
0.3424858500	-0.0009999500	0.0165283360	0.0011581118	0.1087405200
0.3461439000	-0.0009999500	0.0159046040	0.0011470822	0.1116637000
0.3479483100	-0.0009999500	0.0155961590	0.0011399984	0.1130871300
0.3519960300	-0.0009999500	0.0149018700	0.0011282050	0.1162639200
0.3534981900	-0.0009999500	0.0146435830	0.0011227023	0.1174545600
0.3579331300	-0.0009999500	0.0138783400	0.0011096508	0.1209230600
0.3591510100	-0.0009999500	0.0136677030	0.0011049094	0.1218731300
0.3638944000	-0.0009999500	0.0128444270	0.0010891440	0.1256226300
0.3648013200	-0.0009999500	0.0126866400	0.0010856474	0.1263266100
0.3700074900	-0.0009999500	0.0117777470	0.0010697435	0.1303490500
0.3706657000	-0.0009999500	0.0116625580	0.0010672744	0.1308644000
0.3762002900	-0.0009999500	0.0106905950	0.0010527405	0.1351085000
0.3767104100	-0.0009999500	0.0106007910	0.0010510914	0.1355000700
0.3824115400	-0.0009999500	0.0095936721	0.0010354417	0.1399198200
0.3827936900	-0.0009999500	0.0095259948	0.0010342764	0.1402113000
0.3887842900	-0.0009999500	0.0084614716	0.0010188785	0.1447626500
0.3891823300	-0.0009999500	0.0083905524	0.0010176158	0.1450695400
0.3953349300	-0.0009999500	0.0072906208	0.0010008763	0.1497168100
0.3958152200	-0.0009999500	0.0072045201	0.0009994565	0.1500776400
0.4020100500	-0.0009999500	0.0060902820	0.0009802145	0.1547938900
0.4025729600	-0.0009999500	0.0059887310	0.0009786449	0.1552139800
0.4087927300	-0.0009999500	0.0048631532	0.0009636646	0.1598274600
0.4096992900	-0.0009999500	0.0046985848	0.0009613876	0.1605035200
0.4154331400	-0.0009999500	0.0036546176	0.0009473989	0.1647957000
0.4166081500	-0.0009999500	0.0034400383	0.0009443080	0.1656792500
0.4219744200	-0.0009999500	0.0024572555	0.0009310071	0.1696851300
0.4233161200	-0.0009999500	0.0022108385	0.0009273926	0.1706871400
0.4284995500	-0.0009999500	0.0012561257	0.0009147945	0.1745425900
0.4299372700	-0.0009999500	0.0009905910	0.0009106209	0.1756055500
0.4351091100	-0.0009999500	0.0000326713	0.0008982051	0.1794352800
0.4365723100	-0.0009999500	-0.0002390740	0.0008942208	0.1805154500
0.4418435700	-0.0009999500	-0.0012208914	0.0008814055	0.1843769400
0.4432930600	-0.0009999500	-0.0014915833	0.0008774600	0.1854430900
0.4486289900	-0.0009999500	-0.0024910015	0.0008648912	0.1893665200
0.4500437400	-0.0009999500	-0.0027566694	0.0008608756	0.1903998600
0.4555196200	-0.0009999500	-0.0037880105	0.0008474434	0.1944312900
0.4568485600	-0.0009999500	-0.0040389532	0.0008437368	0.1954089700
0.4626239200	-0.0009999500	-0.0051328084	0.0008298198	0.1995910700
0.4639406200	-0.0009999500	-0.0053828484	0.0008261991	0.2005518100
0.4698416000	-0.0009999500	-0.0065068835	0.0008118962	0.2048487100
0.4712420700	-0.0009999500	-0.0067743803	0.0008083717	0.2058536000
0.4771742500	-0.0009999500	-0.0079108682	0.0007947775	0.2101313200
0.4786953000	-0.0009999500	-0.0082030958	0.0007910199	0.2112342300
0.4844204800	-0.0009999500	-0.0093062138	0.0007777159	0.2153841000
0.4860301600	-0.0009999500	-0.0096172178	0.0007735074	0.2165528700
0.4916381500	-0.0009999500	-0.0107038370	0.0007605569	0.2206345900
0.4933008000	-0.0009999500	-0.0110268700	0.0007561855	0.2218369700
0.4990210800	-0.0009999500	-0.0121414760	0.0007427570	0.2259693600
0.5006619700	-0.0009999500	-0.0124620660	0.0007385061	0.2271658000
0.5065794600	-0.0009999500	-0.0136216680	0.0007245687	0.2314312600
0.5082196000	-0.0009999500	-0.0139439340	0.0007201797	0.2326135000
0.5143641200	-0.0009999500	-0.0151549990	0.0007055121	0.2370487900
0.5159304100	-0.0009999500	-0.0154645280	0.0007012011	0.2381790300
0.5222930900	-0.0009999500	-0.0167259480	0.0006856489	0.2428153600
0.5237187100	-0.0009999500	-0.0170093370	0.0006816676	0.2438457800
0.5304563000	-0.0009999500	-0.0183530040	0.0006649972	0.2487485300
0.5317017400	-0.0009999500	-0.0186020620	0.0006615554	0.2496574500
0.5388588300	-0.0009999500	-0.0200380830	0.0006442695	0.2548327100
0.5399804700	-0.0009999500	-0.0202637480	0.0006412566	0.2556552000
0.5473857500	-0.0009999500	-0.0217587950	0.0006231987	0.2611123300
0.5483440200	-0.0009999500	-0.0219527930	0.0006206057	0.2618125400
0.5561952000	-0.0009999500	-0.0235478450	0.0005995371	0.2676886000
0.5568801200	-0.0009999500	-0.0236873920	0.0005975744	0.2682023300
0.5654195500	-0.0009999500	-0.0254336430	0.0005745510	0.2744637400
0.5662820900	-0.0009999500	-0.0256105720	0.0005720799	0.2751118200
0.5745278000	-0.0009999500	-0.0273083090	0.0005502231	0.2812421000
0.5761233600	-0.0009999500	-0.0276379050	0.0005469311	0.2824266000
0.5831093200	-0.0009999500	-0.0290859660	0.0005319700	0.2876605100
0.5854693700	-0.0009999500	-0.0295766670	0.0005268159	0.2894158700
0.5906938300	-0.0009999500	-0.0306663050	0.0005146185	0.2934607900
0.5930581100	-0.0009999500	-0.0311606000	0.0005073558	0.2952984300
0.5976037400	-0.0009999500	-0.0321137310	0.0004965920	0.2987732900
0.5996008500	-0.0009999500	-0.0325333030	0.0004901805	0.3003600500
0.6035626500	-0.0009999500	-0.0333678280	0.0004788696	0.3035594500
0.6051995200	-0.0009999500	-0.0337132140	0.0004736380	0.3048620200
0.6090748300	-0.0009999500	-0.0345328260	0.0004616660	0.3080013700
0.6105621500	-0.0009999500	-0.0348479560	0.0004568834	0.3092236800
0.6144945000	-0.0009999500	-0.0356829170	0.0004449819	0.3124904300
0.6164335600	-0.0009999500	-0.0360956490	0.0004396356	0.3140500500
0.6199227000	-0.0009999500	-0.0368393550	0.0004311083	0.3167875400
0.6236169900	-0.0009999500	-0.0376291500	0.0004248005	0.3198180500
0.6238820600	-0.0009999500	-0.0376858490	0.0004239129	0.3200325400
0.6283475800	-0.0009999500	-0.0386436540	0.0004064421	0.3236123300
0.6293386200	-0.0009999500	-0.0388566180	0.0004029762	0.3244279300
0.6335842600	-0.0009999500	-0.0397708120	0.0003877460	0.3280631900
0.6346975600	-0.0009999500	-0.0400110040	0.0003838059	0.3289953500
0.6383882200	-0.0009999500	-0.0408086810	0.0003715462	0.3321087400
0.6393775300	-0.0009999500	-0.0410228860	0.0003676775	0.3329855800
0.6424304200	-0.0009999500	-0.0416848880	0.0003570743	0.3355976000
0.6433333200	-0.0009999500	-0.0418809580	0.0003539042	0.3363800300
0.6458163300	-0.0009999500	-0.0424208680	0.0003454374	0.3386273400
0.6466504900	-0.0009999500	-0.0426024940	0.0003425973	0.3393776400
0.6489104600	-0.0009999500	-0.0430950860	0.0003354000	0.3413852500
0.6499255300	-0.0009999500	-0.0433166550	0.0003318897	0.3422917700
0.6516168700	-0.0009999500	-0.0436860840	0.0003263133	0.3437949100
0.6535269000	-0.0009999500	-0.0441039170	0.0003222212	0.3455008300
0.6535389400	-0.0009999500	-0.0441065580	0.0003221714	0.3455115900
0.6557399600	-0.0009999500	-0.0445888190	0.0003129492	0.3474984800
0.6560663000	-0.0009999500	-0.0446603930	0.0003117750	0.3477913100
0.6584216400	-0.0009999500	-0.0451774600	0.0003028448	0.3499502800
0.6588097200	-0.0009999500	-0.0452627610	0.0003011970	0.3503095500
0.6611042000	-0.0009999500	-0.0457675080	0.0002928804	0.3524086500
0.6614697600	-0.0009999500	-0.0458480120	0.0002912716	0.3527417200
0.6636639800	-0.0009999500	-0.0463316740	0.0002829962	0.3547858900
0.6639512200	-0.0009999500	-0.0463950600	0.0002817890	0.3550551800
0.6660656900	-0.0009999500	-0.0468620020	0.0002744149	0.3570032700
0.6663115600	-0.0009999500	-0.0469163470	0.0002733734	0.3572369200
0.6682003700	-0.0009999500	-0.0473341870	0.0002662279	0.3590390700
0.6684432600	-0.0009999500	-0.0473879690	0.0002652290	0.3592666400
0.6701965900	-0.0009999500	-0.0477764460	0.0002580409	0.3609323500
0.6704478900	-0.0009999500	-0.0478321690	0.0002569081	0.3611716300
0.6721335100	-0.0009999500	-0.0482062140	0.0002496780	0.3627567300
0.6724157900	-0.0009999500	-0.0482689030	0.0002483891	0.3630274500
0.6739803000	-0.0009999500	-0.0486165810	0.0002413695	0.3645379800
0.6743045400	-0.0009999500	-0.0486886950	0.0002400139	0.3648484100
0.6757259400	-0.0009999500	-0.0490050060	0.0002335502	0.3662151400
0.6760899400	-0.0009999500	-0.0490860720	0.0002322068	0.3665677000
0.6773561200	-0.0009999500	-0.0493682210	0.0002273103	0.3677884600
0.6777268100	-0.0009999500	-0.0494508740	0.0002256892	0.3681551500
0.6789295100	-0.0009999500	-0.0497192070	0.0002213037	0.3693504300
0.6792335500	-0.0009999500	-0.0497870780	0.0002199144	0.3696473500
0.6805598100	-0.0009999500	-0.0500833390	0.0002151263	0.3709587500
0.6806960100	-0.0009999500	-0.0501137790	0.0002143154	0.3710921400
0.6814922700	-0.0009999500	-0.0502918700	0.0002107653	0.3718730800
0.6821527500	-0.0009999500	-0.0504395850	0.0002070498	0.3725152600
0.6822763100	-0.0009999500	-0.0504672340	0.0002063542	0.3726379300
0.6835429700	-0.0009999500	-0.0507508370	0.0001988798	0.3738816100
0.6841370500	-0.0009999500	-0.0508839790	0.0001987356	0.3744699100
0.6847637300	-0.0009999500	-0.0510244440	0.0001958989	0.3750815400
0.6858570000	-0.0009999500	-0.0512696950	0.0001915199	0.3761756700
0.6859378800	-0.0009999500	-0.0512878520	0.0001909158	0.3762576300
0.6861244400	-0.0009999500	-0.0513297360	0.0001904840	0.3764525100
0.6869894300	-0.0009999500	-0.0515239460	0.0001857270	0.3773493200
0.6877378800	-0.0009999500	-0.0516921360	0.0001846425	0.3781304100
0.6879728400	-0.0009999500	-0.0517449380	0.0001834589	0.3783729100
0.6880811500	-0.0009999500	-0.0517692900	0.0001831957	0.3784826700
0.6889911300	-0.0009999500	-0.0519739350	0.0001788808	0.3794072300
0.6894224900	-0.0009999500	-0.0520710050	0.0001765808	0.3798592400
0.6899367000	-0.0009999500	-0.0521867310	0.0001737041	0.3803906400
0.6906550500	-0.0009999500	-0.0523485130	0.0001713636	0.3811398700
0.6908862000	-0.0009999500	-0.0524005930	0.0001705103	0.3813755200
0.6918069100	-0.0009999500	-0.0526081060	0.0001669157	0.3822857400
0.6918810000	-0.0009999500	-0.0526248180	0.0001665568	0.3823589400
0.6926754700	-0.0009999500	-0.0528040120	0.0001622477	0.3831802600
0.6928694800	-0.0009999500	-0.0528477800	0.0001610574	0.3833802600
0.6928872500	-0.0009999500	-0.0528517780	0.0001609851	0.3833982600
0.6938419900	-0.0009999500	-0.0530673150	0.0001565728	0.3843907700
0.6939324100	-0.0009999500	-0.0530877410	0.0001561475	0.3844851300
0.6948007900	-0.0009999500	-0.0532839370	0.0001527561	0.3853807200
0.6949543400	-0.0009999500	-0.0533186420	0.0001519556	0.3855416500
0.6957394500	-0.0009999500	-0.0534961450	0.0001478935	0.3863594500
0.6959253500	-0.0009999500	-0.0535382000	0.0001471975	0.3865516200
0.6966930000	-0.0009999500	-0.0537118910	0.0001425772	0.3873499300
0.6968705700	-0.0009999500	-0.0537520870	0.0001414047	0.3875359300
0.6976679000	-0.0009999500	-0.0539326330	0.0001379568	0.3883692900
0.6978167300	-0.0009999500	-0.0539663360	0.0001369405	0.3885249200
0.6987080600	-0.0009999500	-0.0541683440	0.0001313234	0.3894543900
0.6987655200	-0.0009999500	-0.0541813670	0.0001310158	0.3895146300
0.6991201000	-0.0009999500	-0.0542617960	0.0001291760	0.3898937400
0.6997112600	-0.0009999500	-0.0543958620	0.0001258472	0.3905199500
0.6998176600	-0.0009999500	-0.0544200090	0.0001254144	0.3906358200
0.7006450900	-0.0009999500	-0.0546078050	0.0001230307	0.3914997600
0.7009598600	-0.0009999500	-0.0546792890	0.0001218378	0.3918267500
0.7015297400	-0.0009999500	-0.0548087320	0.0001185335	0.3924201700
0.7020853200	-0.0009999500	-0.0549349930	0.0001166133	0.3929970300
0.7024359700	-0.0009999500	-0.0550147030	0.0001141226	0.3933642800
0.7032146500	-0.0009999500	-0.0551918190	0.0001094247	0.3941891800
0.7033488800	-0.0009999500	-0.0552223510	0.0001086012	0.3943300500
0.7038395400	-0.0009999500	-0.0553340350	0.0001055705	0.3948613100
0.7042713800	-0.0009999500	-0.0554323350	0.0001025561	0.3953232200
0.7044022700	-0.0009999500	-0.0554621410	0.0001017341	0.3954653700
0.7052138400	-0.0009999500	-0.0556470160	0.0000969978	0.3963320000
0.7056816200	-0.0009999500	-0.0557536330	0.0000938372	0.3968417900
0.7061401600	-0.0009999500	-0.0558581690	0.0000901350	0.3973397300
0.7068989900	-0.0009999500	-0.0560312900	0.0000884158	0.3981820600
0.7070502600	-0.0009999500	-0.0560658050	0.0000875144	0.3983468100
0.7076052400	-0.0009999500	-0.0561924990	0.0000860061	0.3989442600
0.7079544700	-0.0009999500	-0.0562722240	0.0000849101	0.3993189900
0.7080666400	-0.0009999500	-0.0562978460	0.0000845228	0.3994382900
0.7088095500	-0.0009999500	-0.0564675700	0.0000808519	0.4002369300
0.7095208200	-0.0009999500	-0.0566301610	0.0000784046	0.4009976100
0.7097170400	-0.0009999500	-0.0566750280	0.0000775808	0.4012098300
0.7106435300	-0.0009999500	-0.0568870010	0.0000733442	0.4022206400
0.7106950300	-0.0009999500	-0.0568987800	0.0000730921	0.4022759500
0.7113364900	-0.0009999500	-0.0570456650	0.0000694924	0.4029842900
0.7116882200	-0.0009999500	-0.0571261830	0.0000674470	0.4033709200
0.7117140300	-0.0009999500	-0.0571321060	0.0000672915	0.4033997400
0.7127065700	-0.0009999500	-0.0573595540	0.0000626834	0.4044887700
0.7128084900	-0.0009999500	-0.0573829110	0.0000619932	0.4046013700
0.7137734300	-0.0009999500	-0.0576042420	0.0000552775	0.4056609300
0.7139229800	-0.0009999500	-0.0576385560	0.0000548880	0.4058270800
0.7148593700	-0.0009999500	-0.0578535160	0.0000485444	0.4068466400
0.7150510500	-0.0009999500	-0.0578975420	0.0000471675	0.4070560900
0.7159421400	-0.0009999500	-0.0581022690	0.0000428339	0.4080401700
0.7161640500	-0.0009999500	-0.0581532750	0.0000412244	0.4082830800
0.7170587200	-0.0009999500	-0.0583590310	0.0000353680	0.4092683200
0.7172540400	-0.0009999500	-0.0584039650	0.0000345196	0.4094861400
0.7181864400	-0.0009999500	-0.0586185870	0.0000297658	0.4105120300
0.7183437300	-0.0009999500	-0.0586548110	0.0000288348	0.4106821700
0.7193111200	-0.0009999500	-0.0588776800	0.0000257363	0.4117281100
0.7194426100	-0.0009999500	-0.0589079860	0.0000249165	0.4118689600
0.7204672100	-0.0009999500	-0.0591442550	0.0000187419	0.4129704200
0.7205459500	-0.0009999500	-0.0591624120	0.0000184648	0.4130580100
0.7213274200	-0.0009999500	-0.0593427790	0.0000128209	0.4139204300
0.7215818800	-0.0009999500	-0.0594015080	0.0000109754	0.4142006000
0.7216070900	-0.0009999500	-0.0594073310	0.0000107821	0.4142290900
0.7225891900	-0.0009999500	-0.0596341940	0.0000074556	0.4153386100
0.7226635800	-0.0009999500	-0.0596513750	0.0000073534	0.4154238700
0.7236355500	-0.0009999500	-0.0598760990	0.0000022522	0.4165082600
0.7237962500	-0.0009999500	-0.0599132700	0.0000018674	0.4166844800
0.7247588600	-0.0009999500	-0.0601360240	-0.0000039048	0.4177485400
0.7249745100	-0.0009999500	-0.0601859650	-0.0000049361	0.4179861500
0.7258960000	-0.0009999500	-0.0603993980	-0.0000101583	0.4190277200
0.7260782700	-0.0009999500	-0.0604416360	-0.0000112714	0.4192286400
0.7269919500	-0.0009999500	-0.0606534560	-0.0000179904	0.4202537800
0.7271968700	-0.0009999500	-0.0607009940	-0.0000194915	0.4204934500
0.7280284200	-0.0009999500	-0.0608939420	-0.0000243656	0.4214108300
0.7283130900	-0.0009999500	-0.0609600250	-0.0000260749	0.4217205300
0.7290177900	-0.0009999500	-0.0611236880	-0.0000294001	0.4225073500
0.7293615300	-0.0009999500	-0.0612035470	-0.0000315984	0.4228829400
0.7299514400	-0.0009999500	-0.0613406640	-0.0000350211	0.4235379400
0.7304571900	-0.0009999500	-0.0614582860	-0.0000343902	0.4241263600
0.7309131600	-0.0009999500	-0.0615643340	-0.0000366046	0.4246439600
0.7314041300	-0.0009999500	-0.0616786220	-0.0000383348	0.4251827000
0.7319836600	-0.0009999500	-0.0618135150	-0.0000407831	0.4258055100
0.7324397600	-0.0009999500	-0.0619197670	-0.0000448034	0.4262945100
0.7329235100	-0.0009999500	-0.0620324720	-0.0000481952	0.4268103200
0.7336509200	-0.0009999500	-0.0622020550	-0.0000523284	0.4275943600
0.7338780800	-0.0009999500	-0.0622550360	-0.0000533892	0.4278442600
0.7343839400	-0.0009999500	-0.0623730720	-0.0000571368	0.4283976600
0.7348187600	-0.0009999500	-0.0624745230	-0.0000586525	0.4288742200
0.7350961600	-0.0009999500	-0.0625392870	-0.0000594683	0.4291798800
0.7358316200	-0.0009999500	-0.0627110530	-0.0000599564	0.4299877900
0.7361800100	-0.0009999500	-0.0627924650	-0.0000624743	0.4303596600
0.7367543000	-0.0009999500	-0.0629266950	-0.0000698720	0.4309750200
0.7369231600	-0.0009999500	-0.0629661830	-0.0000705377	0.4311628900
0.7374642500	-0.0009999500	-0.0630927380	-0.0000687649	0.4317685700
0.7377982700	-0.0009999500	-0.0631708950	-0.0000701640	0.4321331700
0.7384149400	-0.0009999500	-0.0633152200	-0.0000751088	0.4327941500
0.7385746200	-0.0009999500	-0.0633526070	-0.0000758055	0.4329678400
0.7391747200	-0.0009999500	-0.0634931620	-0.0000782611	0.4336150000
0.7393232600	-0.0009999500	-0.0635279490	-0.0000782485	0.4337770600
0.7393725500	-0.0009999500	-0.0635395050	-0.0000783138	0.4338293700
0.7400803600	-0.0009999500	-0.0637054000	-0.0000753848	0.4346045000
0.7405163600	-0.0009999500	-0.0638076440	-0.0000777262	0.4350616000
0.7408987900	-0.0009999500	-0.0638973270	-0.0000784760	0.4354635500
0.7411036500	-0.0009999500	-0.0639453900	-0.0000777952	0.4356896900
0.7416874200	-0.0009999500	-0.0640823990	-0.0000811499	0.4363106500
0.7417858800	-0.0009999500	-0.0641055110	-0.0000821281	0.4364128400
0.7419270300	-0.0009999500	-0.0641386580	-0.0000824990	0.4365658500
0.7424176900	-0.0009999500	-0.0642538890	-0.0000834987	0.4371063100
0.7427265600	-0.0009999500	-0.0643264500	-0.0000837611	0.4374426300
0.7430588000	-0.0009999500	-0.0644045320	-0.0000833227	0.4378223400
0.7434609500	-0.0009999500	-0.0644990580	-0.0000820050	0.4382700000
0.7436763600	-0.0009999500	-0.0645496990	-0.0000819476	0.4385062200
0.7442019600	-0.0009999500	-0.0646733270	-0.0000795911	0.4390969900
0.7442526800	-0.0009999500	-0.0646852550	-0.0000794677	0.4391539400
0.7444147500	-0.0009999500	-0.0647233950	-0.0000786250	0.4393270000
0.7448027100	-0.0009999500	-0.0648146940	-0.0000756555	0.4397479900
0.7449138800	-0.0009999500	-0.0648408610	-0.0000755060	0.4398669000
0.7453110800	-0.0009999500	-0.0649344030	-0.0000734446	0.4402872600
0.7455738200	-0.0009999500	-0.0649962870	-0.0000717365	0.4405517900
0.7457850600	-0.0009999500	-0.0650460420	-0.0000712881	0.4407642200
0.7462005600	-0.0009999500	-0.0651439350	-0.0000592759	0.4411699800
0.7462312000	-0.0009999500	-0.0651511550	-0.0000583902	0.4412015700
0.7462500300	-0.0009999500	-0.0651555960	-0.0000547880	0.4412205500
0.7466863400	-0.0009999500	-0.0652584360	0.0000639941	0.4416556100
0.7471118600	-0.0009999500	-0.0653587510	0.0002618045	0.4414906800
0.7471460100	-0.0009999500	-0.0653668050	0.0002718643	0.4414834100
0.7471100100	-0.0009999500	-0.0653688610	0.0002666476	0.4414217800
0.7466620200	-0.0009999500	-0.0653944240	0.0001626316	0.4407930100
0.7461800600	-0.0009999500	-0.0654218940	0.0000888706	0.4399598500
0.7461519200	-0.0009999500	-0.0654234960	0.0000861959	0.4399114500
0.7461121100	-0.0009999500	-0.0654257680	0.0000870832	0.4398473500
0.7455973600	-0.0009999500	-0.0654550720	0.0000972515	0.4390069200
0.7451406700	-0.0009999500	-0.0654810150	0.0001072733	0.4382695900
0.7449793200	-0.0009999500	-0.0654901790	0.0001100442	0.4380059500
0.7446732500	-0.0009999500	-0.0655075310	0.0001137368	0.4374909100
0.7442617400	-0.0009999500	-0.0655308590	0.0001182758	0.4367869200
0.7440177200	-0.0009999500	-0.0655446570	0.0001228238	0.4363633700
0.7434920700	-0.0009999500	-0.0655743700	0.0001302200	0.4354297800
0.7429250500	-0.0009999500	-0.0656063480	0.0001399265	0.4344827800
0.7427367000	-0.0009999500	-0.0656169650	0.0001429661	0.4341675900
0.7419664900	-0.0009999500	-0.0656602680	0.0001512590	0.4328546500
0.7415973500	-0.0009999500	-0.0656809880	0.0001558111	0.4322366700
0.7407428000	-0.0009999500	-0.0657288880	0.0001677584	0.4307899800
0.7401136800	-0.0009999500	-0.0657640470	0.0001796900	0.4297525600
0.7397078900	-0.0009999500	-0.0657866970	0.0001861704	0.4290967300
0.7389188400	-0.0009999500	-0.0658306550	0.0001964433	0.4278885400
0.7382188400	-0.0009999500	-0.0658695550	0.0002081057	0.4268144400
0.7374925000	-0.0009999500	-0.0659098180	0.0002183108	0.4256820700
0.7369302500	-0.0009999500	-0.0659409460	0.0002226300	0.4247942300
0.7352824800	-0.0009999500	-0.0660317840	0.0002459653	0.4222917900
0.7352365900	-0.0009999500	-0.0660343170	0.0002464100	0.4222212100
0.7352218000	-0.0009999500	-0.0660351290	0.0002466192	0.4221993100
0.7351825200	-0.0009999500	-0.0660372820	0.0002471292	0.4221423300
0.7337496300	-0.0009999500	-0.0661158560	0.0002634541	0.4200310100
0.7327446900	-0.0009999500	-0.0661707150	0.0002748325	0.4186101300
0.7322905700	-0.0009999500	-0.0661954810	0.0002793423	0.4179654400
0.7307886500	-0.0009999500	-0.0662770350	0.0002964434	0.4158446200
0.7305018300	-0.0009999500	-0.0662925690	0.0002990808	0.4154475000
0.7287929700	-0.0009999500	-0.0663848000	0.0003146714	0.4131308200
0.7284886200	-0.0009999500	-0.0664011690	0.0003187017	0.4127205300
0.7269116600	-0.0009999500	-0.0664857250	0.0003343959	0.4106626200
0.7264983700	-0.0009999500	-0.0665078240	0.0003380344	0.4101357800
0.7247183900	-0.0009999500	-0.0666026030	0.0003553086	0.4078964000
0.7242926400	-0.0009999500	-0.0666252150	0.0003595510	0.4073667800
0.7223618600	-0.0009999500	-0.0667272510	0.0003763779	0.4049877200
0.7219497600	-0.0009999500	-0.0667489620	0.0003798630	0.4044783700
0.7199841100	-0.0009999500	-0.0668520410	0.0003956435	0.4020716500
0.7195961500	-0.0009999500	-0.0668723140	0.0003986259	0.4016085300
0.7174060300	-0.0009999500	-0.0669862260	0.0004148863	0.3990503000
0.7170686100	-0.0009999500	-0.0670037120	0.0004175295	0.3986534200
0.7145331500	-0.0009999500	-0.0671344030	0.0004354913	0.3958132600
0.7142076500	-0.0009999500	-0.0671511140	0.0004378190	0.3954537500
0.7113892400	-0.0009999500	-0.0672949180	0.0004572963	0.3923359500
0.7110738800	-0.0009999500	-0.0673109370	0.0004594597	0.3919967400
0.7078958700	-0.0009999500	-0.0674712960	0.0004799034	0.3886555700
0.7075821800	-0.0009999500	-0.0674870390	0.0004820161	0.3883257500
0.7041320200	-0.0009999500	-0.0676589980	0.0005027761	0.3848182000
0.7037895300	-0.0009999500	-0.0676759700	0.0005048782	0.3844780900
0.7001151400	-0.0009999500	-0.0678566620	0.0005262285	0.3808591700
0.6996973200	-0.0009999500	-0.0678770910	0.0005287677	0.3804540300
0.6957783100	-0.0009999500	-0.0680670440	0.0005497324	0.3767667700
0.6952995700	-0.0009999500	-0.0680900960	0.0005525597	0.3763212300
0.6912018100	-0.0009999500	-0.0682856520	0.0005757002	0.3725900900
0.6905995600	-0.0009999500	-0.0683141800	0.0005789497	0.3720535300
0.6863103500	-0.0009999500	-0.0685154800	0.0006019416	0.3682839000
0.6855557000	-0.0009999500	-0.0685506090	0.0006061122	0.3676323900
0.6809628600	-0.0009999500	-0.0687622500	0.0006270558	0.3637839000
0.6800586600	-0.0009999500	-0.0688035410	0.0006317755	0.3630330300
0.6751960500	-0.0009999500	-0.0690231470	0.0006533764	0.3590884200
0.6740146900	-0.0009999500	-0.0690759570	0.0006585925	0.3581598100
0.6688136500	-0.0009999500	-0.0693056880	0.0006801196	0.3541283300
0.6673585200	-0.0009999500	-0.0693692040	0.0006865407	0.3530251100
0.6617590200	-0.0009999500	-0.0696104390	0.0007068404	0.3489130400
0.6600827600	-0.0009999500	-0.0696817040	0.0007131824	0.3477104000
0.6541468500	-0.0009999500	-0.0699305010	0.0007330719	0.3435505300
0.6522284200	-0.0009999500	-0.0700097380	0.0007408122	0.3422297800
0.6460745900	-0.0009999500	-0.0702600630	0.0007638935	0.3381002500
0.6437957900	-0.0009999500	-0.0703512580	0.0007721086	0.3366169300
0.6372793300	-0.0009999500	-0.0706077590	0.0007931596	0.3324649000
0.6348697500	-0.0009999500	-0.0707009580	0.0008010516	0.3309534200
0.6281071300	-0.0009999500	-0.0709578470	0.0008211016	0.3268269300
0.6256383700	-0.0009999500	-0.0710499360	0.0008284258	0.3253567200
0.6186383400	-0.0009999500	-0.0713060650	0.0008485403	0.3212943700
0.6162557600	-0.0009999500	-0.0713915900	0.0008555575	0.3199457800
0.6092411300	-0.0009999500	-0.0716385250	0.0008741842	0.3160366100
0.6069845000	-0.0009999500	-0.0717164130	0.0008807746	0.3148064300
0.6002162700	-0.0009999500	-0.0719456150	0.0008984300	0.3111945400
0.5980665700	-0.0009999500	-0.0720170070	0.0009045185	0.3100466400
0.5918377600	-0.0009999500	-0.0722201090	0.0009205268	0.3067733900
0.5896840100	-0.0009999500	-0.0722889970	0.0009265919	0.3056745800
0.5837221100	-0.0009999500	-0.0724763200	0.0009408942	0.3026594800
0.5815877900	-0.0009999500	-0.0725421010	0.0009465387	0.3015952700
0.5757746700	-0.0009999500	-0.0727180690	0.0009610410	0.2987496600
0.5736119200	-0.0009999500	-0.0727822780	0.0009670342	0.2976998700
0.5678983900	-0.0009999500	-0.0729487690	0.0009799901	0.2949653900
0.5657743800	-0.0009999500	-0.0730094760	0.0009855235	0.2939636100
0.5599260900	-0.0009999500	-0.0731733140	0.0009993640	0.2912369700
0.5578764100	-0.0009999500	-0.0732296330	0.0010043892	0.2902993300
0.5511459700	-0.0009999500	-0.0734101380	0.0010170600	0.2872747500
0.5492823100	-0.0009999500	-0.0734593050	0.0010197631	0.2864470800
0.5451670900	-0.0009999500	-0.0735643580	0.0010360154	0.2846481200