TITLE     = "Surface mesh and solution"
VARIABLES = "x"
"y"
"z"
"cfx"
"Cp"
DATASETAUXDATA alpha_deg="  0.0000000E+00"
DATASETAUXDATA beta_deg="  0.0000000E+00"
DATASETAUXDATA bref="  0.7500000"
DATASETAUXDATA cref="   1.000000"
DATASETAUXDATA itranflg="           0"
DATASETAUXDATA ivisc="           2"
DATASETAUXDATA mach="  0.2000000"
DATASETAUXDATA reue_mil="   4.600000"
DATASETAUXDATA sref="  0.7500000"
DATASETAUXDATA tinf_r="   521.0000"
DATASETAUXDATA xmc="  0.0000000E+00"
DATASETAUXDATA ymc="  0.0000000E+00"
DATASETAUXDATA zmc="  0.0000000E+00"
ZONE T="Slice: Y=-0.001"
STRANDID=0, SOLUTIONTIME=0
Nodes=580, Elements=580, ZONETYPE=FELineSeg
DATAPACKING=POINT
DT=(DOUBLE DOUBLE DOUBLE DOUBLE DOUBLE )
-0.249049 -0.001000 0.021789 0.000351	0.575385
-0.249074 -0.001000 0.021414 0.000224	0.581247
-0.249089 -0.001000 0.021194 0.000147	0.585723
-0.249100 -0.001000 0.020828 0.000070	0.630983
-0.249106 -0.001000 0.020625 0.000028	0.654115
-0.249106 -0.001000 0.020501 0.000001	0.669079
-0.249101 -0.001000 0.020002 -0.000082	0.705549
-0.249067 -0.001000 0.019309 -0.000179	0.739399
-0.249064 -0.001000 0.019267 -0.000187	0.743935
-0.249059 -0.001000 0.019209 -0.000198	0.747492
-0.248990 -0.001000 0.018502 -0.000333	0.789115
-0.248936 -0.001000 0.018113 -0.000365	0.811322
-0.248886 -0.001000 0.017783 -0.000401	0.821698
-0.248812 -0.001000 0.017368 -0.000462	0.864400
-0.248700 -0.001000 0.016842 -0.000513	0.870280
-0.248650 -0.001000 0.016618 -0.000521	0.867614
-0.248541 -0.001000 0.016203 -0.000544	0.894357
-0.248477 -0.001000 0.015955 -0.000547	0.908978
-0.248426 -0.001000 0.015785 -0.000556	0.917142
-0.248275 -0.001000 0.015291 -0.000531	0.935286
-0.248037 -0.001000 0.014601 -0.000434	0.943083
-0.248026 -0.001000 0.014572 -0.000432	0.943490
-0.248014 -0.001000 0.014541 -0.000428	0.944123
-0.247747 -0.001000 0.013858 -0.000330	0.958664
-0.247531 -0.001000 0.013368 -0.000238	0.964983
-0.247398 -0.001000 0.013061 -0.000182	0.967802
-0.247094 -0.001000 0.012439 -0.000127	0.984539
-0.246989 -0.001000 0.012224 -0.000106	0.989189
-0.246949 -0.001000 0.012152 -0.000100	0.989800
-0.246549 -0.001000 0.011411 -0.000057	0.991264
-0.246321 -0.001000 0.011027 -0.000014	0.991152
-0.246058 -0.001000 0.010581 0.000035	0.988488
-0.245573 -0.001000 0.009834 0.000127	0.987799
-0.245407 -0.001000 0.009579 0.000155	0.987024
-0.245340 -0.001000 0.009483 0.000169	0.986178
-0.244907 -0.001000 0.008884 0.000284	0.982026
-0.244556 -0.001000 0.008396 0.000375	0.978006
-0.244447 -0.001000 0.008253 0.000402	0.977318
-0.244098 -0.001000 0.007805 0.000480	0.974589
-0.243532 -0.001000 0.007110 0.000565	0.961431
-0.243488 -0.001000 0.007057 0.000572	0.960359
-0.242614 -0.001000 0.006054 0.000734	0.936995
-0.242581 -0.001000 0.006017 0.000738	0.936571
-0.241978 -0.001000 0.005368 0.000936	0.934269
-0.241809 -0.001000 0.005186 0.000989	0.933685
-0.241791 -0.001000 0.005167 0.000992	0.933375
-0.241093 -0.001000 0.004454 0.001039	0.927808
-0.240999 -0.001000 0.004362 0.001052	0.925525
-0.240327 -0.001000 0.003707 0.001086	0.895945
-0.239830 -0.001000 0.003246 0.001166	0.887183
-0.239394 -0.001000 0.002841 0.001234	0.880360
-0.239035 -0.001000 0.002523 0.001290	0.874942
-0.238471 -0.001000 0.002023 0.001367	0.866620
-0.238045 -0.001000 0.001661 0.001384	0.855261
-0.237673 -0.001000 0.001346 0.001398	0.847408
-0.236844 -0.001000 0.000667 0.001509	0.830482
-0.236754 -0.001000 0.000594 0.001517	0.828769
-0.235925 -0.001000 -0.000061 0.001588	0.814217
-0.235791 -0.001000 -0.000164 0.001597	0.812248
-0.235081 -0.001000 -0.000708 0.001666	0.804131
-0.234497 -0.001000 -0.001141 0.001671	0.796343
-0.234085 -0.001000 -0.001445 0.001683	0.791892
-0.233292 -0.001000 -0.002014 0.001758	0.778438
-0.232926 -0.001000 -0.002273 0.001776	0.770026
-0.232126 -0.001000 -0.002826 0.001861	0.752443
-0.231889 -0.001000 -0.002988 0.001889	0.750132
-0.231072 -0.001000 -0.003536 0.001850	0.741792
-0.230703 -0.001000 -0.003778 0.001838	0.736689
-0.229849 -0.001000 -0.004333 0.001896	0.726201
-0.229220 -0.001000 -0.004731 0.001912	0.716509
-0.228613 -0.001000 -0.005113 0.001889	0.709499
-0.227764 -0.001000 -0.005634 0.001980	0.699952
-0.227360 -0.001000 -0.005880 0.002042	0.695522
-0.226245 -0.001000 -0.006543 0.002077	0.684049
-0.226071 -0.001000 -0.006646 0.002060	0.681612
-0.225593 -0.001000 -0.006921 0.002069	0.673372
-0.224876 -0.001000 -0.007335 0.002068	0.661061
-0.224772 -0.001000 -0.007395 0.002082	0.659847
-0.223868 -0.001000 -0.007901 0.002116	0.651980
-0.223366 -0.001000 -0.008182 0.002140	0.648138
-0.223224 -0.001000 -0.008261 0.002152	0.646572
-0.222601 -0.001000 -0.008599 0.002161	0.641327
-0.221686 -0.001000 -0.009095 0.002177	0.633843
-0.221531 -0.001000 -0.009177 0.002182	0.632282
-0.220168 -0.001000 -0.009894 0.002291	0.618272
-0.218707 -0.001000 -0.010643 0.002225	0.605939
-0.218705 -0.001000 -0.010644 0.002225	0.605925
-0.218702 -0.001000 -0.010646 0.002226	0.605891
-0.217135 -0.001000 -0.011427 0.002286	0.590652
-0.216086 -0.001000 -0.011939 0.002318	0.584143
-0.215637 -0.001000 -0.012158 0.002341	0.581614
-0.215000 -0.001000 -0.012459 0.002333	0.576389
-0.214047 -0.001000 -0.012913 0.002340	0.569407
-0.213287 -0.001000 -0.013266 0.002421	0.561880
-0.212171 -0.001000 -0.013781 0.002526	0.552936
-0.210821 -0.001000 -0.014389 0.002647	0.543074
-0.210500 -0.001000 -0.014534 0.002645	0.540559
-0.208833 -0.001000 -0.015268 0.002568	0.533023
-0.208778 -0.001000 -0.015292 0.002570	0.532725
-0.208565 -0.001000 -0.015383 0.002557	0.530980
-0.207018 -0.001000 -0.016048 0.002392	0.518482
-0.206205 -0.001000 -0.016391 0.002432	0.514255
-0.205101 -0.001000 -0.016853 0.002421	0.506659
-0.203776 -0.001000 -0.017394 0.002518	0.498935
-0.202803 -0.001000 -0.017793 0.002603	0.494937
-0.201862 -0.001000 -0.018169 0.002602	0.490870
-0.200349 -0.001000 -0.018768 0.002786	0.485510
-0.198582 -0.001000 -0.019453 0.002540	0.477574
-0.198164 -0.001000 -0.019615 0.002544	0.475415
-0.196489 -0.001000 -0.020244 0.002687	0.466753
-0.195449 -0.001000 -0.020636 0.002729	0.461322
-0.195060 -0.001000 -0.020779 0.002739	0.458532
-0.192190 -0.001000 -0.021824 0.002592	0.442299
-0.191241 -0.001000 -0.022161 0.002625	0.439149
-0.189166 -0.001000 -0.022893 0.002654	0.432092
-0.187655 -0.001000 -0.023416 0.002753	0.426802
-0.186677 -0.001000 -0.023748 0.002739	0.425048
-0.185283 -0.001000 -0.024221 0.002600	0.421265
-0.183637 -0.001000 -0.024766 0.002621	0.417837
-0.182219 -0.001000 -0.025235 0.002576	0.411922
-0.180305 -0.001000 -0.025852 0.002764	0.404093
-0.179411 -0.001000 -0.026138 0.002753	0.400054
-0.176823 -0.001000 -0.026953 0.002672	0.393954
-0.174749 -0.001000 -0.027591 0.002840	0.387480
-0.173606 -0.001000 -0.027943 0.002843	0.382135
-0.172750 -0.001000 -0.028199 0.002867	0.378780
-0.170180 -0.001000 -0.028963 0.002695	0.373767
-0.168289 -0.001000 -0.029513 0.002618	0.373175
-0.166492 -0.001000 -0.030032 0.002630	0.370469
-0.164405 -0.001000 -0.030626 0.002581	0.360407
-0.163324 -0.001000 -0.030931 0.002535	0.354033
-0.160753 -0.001000 -0.031643 0.002472	0.348168
-0.159912 -0.001000 -0.031873 0.002480	0.347425
-0.157256 -0.001000 -0.032587 0.002541	0.342890
-0.156578 -0.001000 -0.032767 0.002529	0.341061
-0.154663 -0.001000 -0.033269 0.002684	0.339329
-0.153299 -0.001000 -0.033627 0.002759	0.337771
-0.153049 -0.001000 -0.033692 0.002782	0.337400
-0.151354 -0.001000 -0.034125 0.002727	0.333674
-0.149078 -0.001000 -0.034707 0.002594	0.328341
-0.148195 -0.001000 -0.034928 0.002632	0.326301
-0.145371 -0.001000 -0.035631 0.002552	0.319646
-0.142078 -0.001000 -0.036434 0.002719	0.316028
-0.141812 -0.001000 -0.036498 0.002712	0.315910
-0.140355 -0.001000 -0.036844 0.002690	0.314317
-0.138100 -0.001000 -0.037379 0.002617	0.312140
-0.137949 -0.001000 -0.037414 0.002609	0.311794
-0.133466 -0.001000 -0.038449 0.002372	0.302036
-0.133027 -0.001000 -0.038549 0.002365	0.301363
-0.130829 -0.001000 -0.039039 0.002354	0.297734
-0.127888 -0.001000 -0.039696 0.002265	0.293216
-0.126158 -0.001000 -0.040072 0.002336	0.290292
-0.123088 -0.001000 -0.040735 0.002394	0.286606
-0.120721 -0.001000 -0.041233 0.002469	0.284697
-0.118482 -0.001000 -0.041705 0.002421	0.283464
-0.116032 -0.001000 -0.042206 0.002526	0.280547
-0.113657 -0.001000 -0.042692 0.002494	0.277745
-0.111742 -0.001000 -0.043074 0.002478	0.273874
-0.108082 -0.001000 -0.043798 0.002358	0.268784
-0.105274 -0.001000 -0.044342 0.002326	0.266684
-0.100549 -0.001000 -0.045235 0.002393	0.259652
-0.098791 -0.001000 -0.045564 0.002349	0.257913
-0.094589 -0.001000 -0.046327 0.002398	0.257017
-0.092401 -0.001000 -0.046725 0.002313	0.256445
-0.086662 -0.001000 -0.047730 0.002302	0.251376
-0.084479 -0.001000 -0.048111 0.002306	0.249952
-0.081149 -0.001000 -0.048666 0.002258	0.244946
-0.076046 -0.001000 -0.049521 0.002018	0.238230
-0.071635 -0.001000 -0.050227 0.001863	0.238277
-0.068252 -0.001000 -0.050763 0.001754	0.238256
-0.061910 -0.001000 -0.051736 0.001738	0.233564
-0.061074 -0.001000 -0.051865 0.001732	0.232976
-0.060822 -0.001000 -0.051902 0.001737	0.232857
-0.053244 -0.001000 -0.053023 0.001780	0.225133
-0.045496 -0.001000 -0.054122 0.001731	0.226259
-0.045148 -0.001000 -0.054172 0.001723	0.226030
-0.044957 -0.001000 -0.054198 0.001722	0.225811
-0.034651 -0.001000 -0.055588 0.001777	0.210430
-0.034337 -0.001000 -0.055629 0.001784	0.210139
-0.033919 -0.001000 -0.055683 0.001774	0.210539
-0.024458 -0.001000 -0.056891 0.001691	0.214985
-0.021292 -0.001000 -0.057277 0.001684	0.212523
-0.014652 -0.001000 -0.058084 0.001592	0.209630
-0.001962 -0.001000 -0.059543 0.001686	0.203105
-0.001833 -0.001000 -0.059557 0.001688	0.203046
-0.001791 -0.001000 -0.059562 0.001687	0.203026
-0.001561 -0.001000 -0.059587 0.001682	0.202971
0.010404 -0.001000 -0.060872 0.001338	0.200144
0.015803 -0.001000 -0.061419 0.001350	0.199615
0.022090 -0.001000 -0.062051 0.001307	0.198150
0.033236 -0.001000 -0.063110 0.001347	0.193860
0.035244 -0.001000 -0.063299 0.001356	0.193330
0.037664 -0.001000 -0.063515 0.001385	0.192731
0.050318 -0.001000 -0.064630 0.001486	0.188857
0.056687 -0.001000 -0.065158 0.001561	0.187165
0.064734 -0.001000 -0.065805 0.001385	0.186166
0.071868 -0.001000 -0.066353 0.001049	0.185347
0.078340 -0.001000 -0.066830 0.001018	0.185779
0.084597 -0.001000 -0.067277 0.001052	0.185826
0.092255 -0.001000 -0.067803 0.001111	0.184916
0.097793 -0.001000 -0.068172 0.001272	0.184701
0.107996 -0.001000 -0.068821 0.001376	0.179948
0.110328 -0.001000 -0.068964 0.001362	0.179425
0.121460 -0.001000 -0.069622 0.001370	0.181166
0.124351 -0.001000 -0.069788 0.001391	0.181458
0.136003 -0.001000 -0.070418 0.001401	0.181545
0.138543 -0.001000 -0.070554 0.001354	0.181578
0.141285 -0.001000 -0.070692 0.001358	0.181558
0.153614 -0.001000 -0.071297 0.001126	0.183794
0.160207 -0.001000 -0.071596 0.001078	0.184051
0.171059 -0.001000 -0.072068 0.001013	0.182205
0.181061 -0.001000 -0.072468 0.001174	0.180463
0.187873 -0.001000 -0.072730 0.001247	0.180140
0.197786 -0.001000 -0.073074 0.001368	0.181946
0.204320 -0.001000 -0.073304 0.001369	0.183293
0.206593 -0.001000 -0.073378 0.001343	0.183549
0.221859 -0.001000 -0.073835 0.001193	0.186061
0.226155 -0.001000 -0.073966 0.001126	0.186745
0.227853 -0.001000 -0.074013 0.001112	0.187068
0.230492 -0.001000 -0.074080 0.001110	0.187720
0.247345 -0.001000 -0.074513 0.000995	0.192032
0.257324 -0.001000 -0.074732 0.001067	0.193259
0.264746 -0.001000 -0.074893 0.001090	0.193942
0.276771 -0.001000 -0.075103 0.001222	0.195012
0.282477 -0.001000 -0.075204 0.001225	0.195402
0.283702 -0.001000 -0.075223 0.001238	0.195459
0.303944 -0.001000 -0.075485 0.001225	0.197316
0.305392 -0.001000 -0.075504 0.001217	0.197448
0.305785 -0.001000 -0.075509 0.001219	0.197527
0.332790 -0.001000 -0.075731 0.001020	0.204898
0.338587 -0.001000 -0.075768 0.000991	0.206538
0.343975 -0.001000 -0.075785 0.001014	0.208150
0.363089 -0.001000 -0.075855 0.000937	0.214337
0.377083 -0.001000 -0.075853 0.000834	0.217653
0.383315 -0.001000 -0.075847 0.000885	0.219186
0.405814 -0.001000 -0.075757 0.001060	0.225706
0.406063 -0.001000 -0.075756 0.001058	0.225773
0.406726 -0.001000 -0.075751 0.001056	0.225963
0.429929 -0.001000 -0.075574 0.000845	0.232930
0.451309 -0.001000 -0.075340 0.000836	0.241908
0.454314 -0.001000 -0.075308 0.000822	0.243182
0.455096 -0.001000 -0.075298 0.000814	0.243501
0.459164 -0.001000 -0.075238 0.000819	0.244814
0.478886 -0.001000 -0.074955 0.000796	0.250774
0.489940 -0.001000 -0.074757 0.000787	0.255370
0.502338 -0.001000 -0.074535 0.000745	0.260043
0.510717 -0.001000 -0.074361 0.000763	0.263077
0.524035 -0.001000 -0.074075 0.000755	0.267737
0.533354 -0.001000 -0.073854 0.000749	0.272023
0.545463 -0.001000 -0.073558 0.000655	0.278358
0.564714 -0.001000 -0.073036 0.000657	0.287921
0.567660 -0.001000 -0.072955 0.000658	0.289258
0.596793 -0.001000 -0.072060 0.000645	0.301753
0.598578 -0.001000 -0.072003 0.000646	0.302472
0.601392 -0.001000 -0.071904 0.000644	0.303801
0.624411 -0.001000 -0.071100 0.000557	0.314342
0.629444 -0.001000 -0.070909 0.000527	0.317084
0.647876 -0.001000 -0.070183 0.000503	0.327539
0.651872 -0.001000 -0.070021 0.000501	0.329724
0.661269 -0.001000 -0.069617 0.000455	0.335828
0.671323 -0.001000 -0.069185 0.000398	0.342463
0.687566 -0.001000 -0.068437 0.000362	0.354317
0.693812 -0.001000 -0.068145 0.000344	0.359103
0.710733 -0.001000 -0.067308 0.000247	0.375130
0.714944 -0.001000 -0.067097 0.000226	0.379348
0.720152 -0.001000 -0.066824 0.000184	0.385308
0.729020 -0.001000 -0.066361 0.000097	0.395464
0.733737 -0.001000 -0.066106 0.000063	0.401037
0.737090 -0.001000 -0.065924 0.000046	0.405155
0.739543 -0.001000 -0.065789 0.000046	0.407640
0.742003 -0.001000 -0.065654 0.000041	0.410243
0.742423 -0.001000 -0.065631 0.000039	0.410964
0.744796 -0.001000 -0.065499 0.000042	0.415004
0.745185 -0.001000 -0.065477 0.000042	0.415630
0.746150 -0.001000 -0.065423 0.000054	0.415788
0.746279 -0.001000 -0.065415 0.000051	0.415499
0.746439 -0.001000 -0.065407 0.000054	0.417800
0.746775 -0.001000 -0.065388 0.000055	0.420351
0.747012 -0.001000 -0.065374 0.000038	0.417314
0.747146 -0.001000 -0.065367 0.000009	0.413443
0.747092 -0.001000 -0.065354 0.000014	0.415698
0.746783 -0.001000 -0.065282 0.000017	0.418194
0.746692 -0.001000 -0.065260 0.000013	0.417231
0.746377 -0.001000 -0.065186 0.000007	0.416420
0.746124 -0.001000 -0.065127 -0.000001	0.416265
0.745773 -0.001000 -0.065044 -0.000014	0.416116
0.744643 -0.001000 -0.064779 -0.000051	0.414247
0.744614 -0.001000 -0.064773 -0.000053	0.414186
0.744603 -0.001000 -0.064770 -0.000053	0.414167
0.744571 -0.001000 -0.064763 -0.000054	0.414147
0.742392 -0.001000 -0.064252 -0.000106	0.412554
0.740705 -0.001000 -0.063858 -0.000127	0.410946
0.737044 -0.001000 -0.063003 -0.000158	0.407092
0.734736 -0.001000 -0.062465 -0.000171	0.404690
0.730164 -0.001000 -0.061404 -0.000199	0.400424
0.726258 -0.001000 -0.060497 -0.000209	0.396843
0.722024 -0.001000 -0.059521 -0.000220	0.393102
0.713294 -0.001000 -0.057511 -0.000223	0.385568
0.697605 -0.001000 -0.053939 -0.000245	0.373092
0.693874 -0.001000 -0.053091 -0.000249	0.370171
0.689348 -0.001000 -0.052075 -0.000244	0.366640
0.671382 -0.001000 -0.048051 -0.000219	0.352639
0.660690 -0.001000 -0.045688 -0.000202	0.344154
0.648182 -0.001000 -0.042938 -0.000164	0.334042
0.630020 -0.001000 -0.039002 -0.000123	0.318942
0.628220 -0.001000 -0.038612 -0.000115	0.317439
0.612481 -0.001000 -0.035258 -0.000070	0.304548
0.602827 -0.001000 -0.033209 -0.000001	0.297150
0.601628 -0.001000 -0.032958 0.000006	0.296242
0.599101 -0.001000 -0.032431 0.000017	0.294308
0.583084 -0.001000 -0.029089 0.000083	0.281971
0.577280 -0.001000 -0.027877 0.000116	0.277579
0.558079 -0.001000 -0.023938 0.000193	0.263385
0.555340 -0.001000 -0.023375 0.000202	0.261318
0.554014 -0.001000 -0.023105 0.000203	0.260348
0.538403 -0.001000 -0.019946 0.000267	0.248454
0.537938 -0.001000 -0.019852 0.000271	0.248100
0.537198 -0.001000 -0.019704 0.000273	0.247530
0.523247 -0.001000 -0.016913 0.000286	0.237268
0.513428 -0.001000 -0.014968 0.000285	0.230381
0.510100 -0.001000 -0.014310 0.000286	0.227968
0.505828 -0.001000 -0.013473 0.000303	0.225015
0.497828 -0.001000 -0.011904 0.000334	0.219480
0.493901 -0.001000 -0.011141 0.000365	0.216618
0.485252 -0.001000 -0.009463 0.000403	0.210340
0.477009 -0.001000 -0.007877 0.000402	0.204401
0.466208 -0.001000 -0.005813 0.000364	0.196135
0.462287 -0.001000 -0.005068 0.000355	0.193077
0.446765 -0.001000 -0.002143 0.000438	0.181397
0.446224 -0.001000 -0.002041 0.000440	0.180988
0.445721 -0.001000 -0.001947 0.000441	0.180609
0.429329 -0.001000 0.001103 0.000456	0.168276
0.426188 -0.001000 0.001683 0.000444	0.165813
0.417275 -0.001000 0.003316 0.000499	0.159295
0.410525 -0.001000 0.004553 0.000518	0.154325
0.405219 -0.001000 0.005513 0.000536	0.150288
0.396805 -0.001000 0.007034 0.000527	0.143968
0.386873 -0.001000 0.008806 0.000563	0.136583
0.383693 -0.001000 0.009374 0.000558	0.134256
0.371255 -0.001000 0.011562 0.000625	0.124642
0.369570 -0.001000 0.011858 0.000632	0.123347
0.369446 -0.001000 0.011880 0.000632	0.123252
0.353350 -0.001000 0.014666 0.000545	0.109344
0.350400 -0.001000 0.015172 0.000554	0.106710
0.332721 -0.001000 0.018178 0.000557	0.091970
0.332311 -0.001000 0.018247 0.000557	0.091627
0.332138 -0.001000 0.018276 0.000557	0.091478
0.329577 -0.001000 0.018705 0.000592	0.089204
0.317950 -0.001000 0.020650 0.000728	0.078951
0.315903 -0.001000 0.020988 0.000752	0.077259
0.304770 -0.001000 0.022819 0.000818	0.068596
0.295990 -0.001000 0.024243 0.000855	0.062168
0.290176 -0.001000 0.025181 0.000818	0.058448
0.280142 -0.001000 0.026773 0.000790	0.050749
0.277522 -0.001000 0.027188 0.000789	0.048572
0.274657 -0.001000 0.027635 0.000791	0.046526
0.265343 -0.001000 0.029082 0.000769	0.039608
0.258009 -0.001000 0.030201 0.000765	0.033478
0.249960 -0.001000 0.031418 0.000788	0.025651
0.243624 -0.001000 0.032372 0.000813	0.019131
0.234766 -0.001000 0.033682 0.000801	0.010179
0.229532 -0.001000 0.034457 0.000784	0.005118
0.223881 -0.001000 0.035275 0.000838	-0.000015
0.217600 -0.001000 0.036186 0.000876	-0.005686
0.216163 -0.001000 0.036392 0.000886	-0.006863
0.205037 -0.001000 0.037970 0.000910	-0.016855
0.203277 -0.001000 0.038217 0.000911	-0.018693
0.198951 -0.001000 0.038816 0.000953	-0.022930
0.192092 -0.001000 0.039766 0.000988	-0.030023
0.186265 -0.001000 0.040554 0.000978	-0.035368
0.182076 -0.001000 0.041122 0.000979	-0.039349
0.179591 -0.001000 0.041454 0.000988	-0.041644
0.171810 -0.001000 0.042482 0.001040	-0.048878
0.168643 -0.001000 0.042894 0.001065	-0.051847
0.159629 -0.001000 0.044053 0.001139	-0.060299
0.157216 -0.001000 0.044359 0.001157	-0.062304
0.148924 -0.001000 0.045395 0.001120	-0.068510
0.146169 -0.001000 0.045733 0.001167	-0.070839
0.139915 -0.001000 0.046495 0.001272	-0.076268
0.135102 -0.001000 0.047071 0.001334	-0.080545
0.129549 -0.001000 0.047726 0.001306	-0.085289
0.126094 -0.001000 0.048130 0.001224	-0.088256
0.123095 -0.001000 0.048474 0.001291	-0.090275
0.116481 -0.001000 0.049228 0.001284	-0.095770
0.110958 -0.001000 0.049842 0.001238	-0.101680
0.106560 -0.001000 0.050327 0.001206	-0.106331
0.095433 -0.001000 0.051518 0.001265	-0.118072
0.095285 -0.001000 0.051534 0.001264	-0.118225
0.095266 -0.001000 0.051536 0.001264	-0.118247
0.095219 -0.001000 0.051541 0.001266	-0.118305
0.083438 -0.001000 0.052752 0.001277	-0.132297
0.079715 -0.001000 0.053121 0.001266	-0.135735
0.071256 -0.001000 0.053942 0.001351	-0.142366
0.067913 -0.001000 0.054256 0.001381	-0.144899
0.062596 -0.001000 0.054747 0.001395	-0.149565
0.057011 -0.001000 0.055246 0.001377	-0.154357
0.053677 -0.001000 0.055539 0.001444	-0.156845
0.047438 -0.001000 0.056067 0.001575	-0.163182
0.044764 -0.001000 0.056295 0.001626	-0.165772
0.043615 -0.001000 0.056389 0.001624	-0.166709
0.035059 -0.001000 0.057075 0.001397	-0.174482
0.033556 -0.001000 0.057192 0.001401	-0.176277
0.025781 -0.001000 0.057781 0.001293	-0.184121
0.023446 -0.001000 0.057951 0.001336	-0.186547
0.014192 -0.001000 0.058598 0.001425	-0.195476
0.011523 -0.001000 0.058778 0.001405	-0.197815
0.005724 -0.001000 0.059144 0.001473	-0.203227
0.002203 -0.001000 0.059365 0.001505	-0.206840
-0.003330 -0.001000 0.059685 0.001518	-0.210212
-0.006058 -0.001000 0.059843 0.001510	-0.212169
-0.006651 -0.001000 0.059874 0.001515	-0.212888
-0.014795 -0.001000 0.060304 0.001423	-0.223375
-0.018414 -0.001000 0.060476 0.001495	-0.228010
-0.024393 -0.001000 0.060758 0.001567	-0.235849
-0.033986 -0.001000 0.061140 0.001170	-0.244982
-0.036709 -0.001000 0.061249 0.001047	-0.247686
-0.036925 -0.001000 0.061257 0.001044	-0.247813
-0.037567 -0.001000 0.061276 0.001036	-0.248285
-0.048690 -0.001000 0.061620 0.000881	-0.257103
-0.057465 -0.001000 0.061818 0.000823	-0.266901
-0.060392 -0.001000 0.061883 0.000753	-0.271108
-0.062410 -0.001000 0.061909 0.000725	-0.272600
-0.073260 -0.001000 0.062040 0.000600	-0.287944
-0.078527 -0.001000 0.062051 0.000532	-0.292271
-0.091259 -0.001000 0.062000 0.000494	-0.303376
-0.095943 -0.001000 0.061945 0.000463	-0.307962
-0.109358 -0.001000 0.061643 0.000544	-0.316361
-0.111037 -0.001000 0.061595 0.000576	-0.318566
-0.124932 -0.001000 0.061033 0.000687	-0.325911
-0.125348 -0.001000 0.061013 0.000689	-0.325550
-0.137093 -0.001000 0.060323 0.000951	-0.337378
-0.137756 -0.001000 0.060283 0.000995	-0.339766
-0.138390 -0.001000 0.060238 0.001017	-0.340558
-0.145565 -0.001000 0.059702 0.001291	-0.344887
-0.146935 -0.001000 0.059591 0.001378	-0.344959
-0.153497 -0.001000 0.059009 0.001812	-0.361500
-0.154631 -0.001000 0.058906 0.001938	-0.363859
-0.156706 -0.001000 0.058694 0.002059	-0.362918
-0.160232 -0.001000 0.058331 0.002253	-0.364049
-0.163099 -0.001000 0.058008 0.002542	-0.374315
-0.165117 -0.001000 0.057783 0.002746	-0.383011
-0.165943 -0.001000 0.057684 0.002818	-0.385526
-0.169504 -0.001000 0.057241 0.003071	-0.387898
-0.170943 -0.001000 0.057056 0.003327	-0.387818
-0.173692 -0.001000 0.056681 0.003942	-0.394122
-0.175171 -0.001000 0.056476 0.003939	-0.396478
-0.178725 -0.001000 0.055952 0.004012	-0.404689
-0.179536 -0.001000 0.055832 0.004068	-0.406842
-0.179998 -0.001000 0.055761 0.004011	-0.407356
-0.182189 -0.001000 0.055408 0.003983	-0.411059
-0.183823 -0.001000 0.055147 0.003865	-0.414167
-0.184956 -0.001000 0.054953 0.003647	-0.411522
-0.187538 -0.001000 0.054506 0.003379	-0.407528
-0.191076 -0.001000 0.053852 0.003777	-0.406075
-0.191545 -0.001000 0.053766 0.003846	-0.406302
-0.191785 -0.001000 0.053719 0.003887	-0.407285
-0.194861 -0.001000 0.053105 0.004570	-0.414544
-0.195297 -0.001000 0.053018 0.004659	-0.415652
-0.195313 -0.001000 0.053015 0.004660	-0.415712
-0.195408 -0.001000 0.052995 0.004669	-0.415816
-0.198536 -0.001000 0.052328 0.004782	-0.421290
-0.199472 -0.001000 0.052119 0.004715	-0.423806
-0.201914 -0.001000 0.051559 0.004459	-0.425539
-0.202821 -0.001000 0.051343 0.004533	-0.426517
-0.204409 -0.001000 0.050958 0.004617	-0.433185
-0.206723 -0.001000 0.050369 0.004888	-0.441959
-0.207032 -0.001000 0.050290 0.004951	-0.442947
-0.207171 -0.001000 0.050253 0.004882	-0.443429
-0.209716 -0.001000 0.049567 0.004790	-0.450461
-0.209725 -0.001000 0.049564 0.004791	-0.450497
-0.209792 -0.001000 0.049545 0.004803	-0.450432
-0.211782 -0.001000 0.048980 0.005089	-0.447138
-0.212392 -0.001000 0.048799 0.005128	-0.448748
-0.213620 -0.001000 0.048434 0.005054	-0.449627
-0.214629 -0.001000 0.048122 0.005086	-0.451315
-0.215617 -0.001000 0.047813 0.005061	-0.453715
-0.216663 -0.001000 0.047476 0.005074	-0.452988
-0.217320 -0.001000 0.047259 0.005205	-0.452260
-0.218185 -0.001000 0.046970 0.005177	-0.460717
-0.219004 -0.001000 0.046688 0.005148	-0.461515
-0.219432 -0.001000 0.046540 0.005137	-0.460536
-0.219610 -0.001000 0.046477 0.005226	-0.459239
-0.220922 -0.001000 0.046007 0.005295	-0.448362
-0.221323 -0.001000 0.045861 0.005343	-0.451241
-0.222105 -0.001000 0.045566 0.005448	-0.448550
-0.222786 -0.001000 0.045310 0.005595	-0.444559
-0.223728 -0.001000 0.044939 0.005677	-0.444867
-0.224344 -0.001000 0.044697 0.005696	-0.442232
-0.224720 -0.001000 0.044543 0.005618	-0.443800
-0.225915 -0.001000 0.044050 0.005599	-0.448916
-0.226889 -0.001000 0.043630 0.005677	-0.450851
-0.227465 -0.001000 0.043380 0.005590	-0.452459
-0.228631 -0.001000 0.042851 0.005470	-0.456232
-0.228901 -0.001000 0.042729 0.005495	-0.451062
-0.229550 -0.001000 0.042421 0.005663	-0.448804
-0.230028 -0.001000 0.042194 0.005671	-0.442848
-0.230292 -0.001000 0.042064 0.005864	-0.442372
-0.231045 -0.001000 0.041693 0.006107	-0.439517
-0.232028 -0.001000 0.041188 0.005850	-0.438605
-0.232054 -0.001000 0.041174 0.005849	-0.438510
-0.232084 -0.001000 0.041159 0.005844	-0.438308
-0.232952 -0.001000 0.040696 0.005952	-0.430655
-0.233848 -0.001000 0.040201 0.005810	-0.415166
-0.233875 -0.001000 0.040186 0.005810	-0.414592
-0.233921 -0.001000 0.040159 0.005823	-0.414094
-0.234822 -0.001000 0.039640 0.006120	-0.407544
-0.235424 -0.001000 0.039279 0.006109	-0.403531
-0.235789 -0.001000 0.039060 0.006150	-0.409902
-0.236296 -0.001000 0.038742 0.005751	-0.393848
-0.236666 -0.001000 0.038509 0.005445	-0.389841
-0.236976 -0.001000 0.038305 0.005694	-0.386735
-0.237456 -0.001000 0.037991 0.005857	-0.386752
-0.237716 -0.001000 0.037815 0.005954	-0.385353
-0.238180 -0.001000 0.037496 0.005784	-0.380814
-0.238513 -0.001000 0.037262 0.005772	-0.380768
-0.238876 -0.001000 0.037000 0.005885	-0.370727
-0.239190 -0.001000 0.036770 0.005880	-0.365952
-0.239590 -0.001000 0.036469 0.005851	-0.354644
-0.239828 -0.001000 0.036287 0.005860	-0.346750
-0.240425 -0.001000 0.035817 0.005605	-0.341272
-0.240473 -0.001000 0.035778 0.005597	-0.340722
-0.240982 -0.001000 0.035359 0.005563	-0.319792
-0.241015 -0.001000 0.035332 0.005557	-0.318700
-0.241429 -0.001000 0.034979 0.005580	-0.309626
-0.241566 -0.001000 0.034858 0.005525	-0.307088
-0.241827 -0.001000 0.034629 0.005516	-0.300452
-0.242093 -0.001000 0.034387 0.005358	-0.293959
-0.242207 -0.001000 0.034284 0.005356	-0.290812
-0.242508 -0.001000 0.034002 0.005479	-0.284046
-0.242587 -0.001000 0.033927 0.005516	-0.283201
-0.242626 -0.001000 0.033889 0.005470	-0.281968
-0.243002 -0.001000 0.033524 0.005119	-0.273127
-0.243365 -0.001000 0.033156 0.005297	-0.242612
-0.243467 -0.001000 0.033053 0.005309	-0.233524
-0.243502 -0.001000 0.033016 0.005335	-0.232729
-0.243891 -0.001000 0.032602 0.005266	-0.242477
-0.243923 -0.001000 0.032567 0.005237	-0.241680
-0.244263 -0.001000 0.032189 0.004852	-0.186862
-0.244352 -0.001000 0.032086 0.004760	-0.184752
-0.244628 -0.001000 0.031765 0.004750	-0.169919
-0.244816 -0.001000 0.031538 0.004680	-0.158884
-0.244993 -0.001000 0.031321 0.004666	-0.150463
-0.245199 -0.001000 0.031058 0.004465	-0.139095
-0.245324 -0.001000 0.030899 0.004433	-0.127442
-0.245390 -0.001000 0.030811 0.004441	-0.120786
-0.245653 -0.001000 0.030457 0.004420	-0.100117
-0.245743 -0.001000 0.030332 0.004312	-0.094098
-0.245982 -0.001000 0.029991 0.004186	-0.067720
-0.246069 -0.001000 0.029863 0.004116	-0.055480
-0.246295 -0.001000 0.029521 0.003925	-0.033934
-0.246420 -0.001000 0.029326 0.003813	-0.023701
-0.246606 -0.001000 0.029024 0.003620	-0.002054
-0.246717 -0.001000 0.028840 0.003551	0.005662
-0.246913 -0.001000 0.028500 0.003531	0.040380
-0.246956 -0.001000 0.028424 0.003495	0.046386
-0.247149 -0.001000 0.028071 0.003346	0.049950
-0.247177 -0.001000 0.028017 0.003320	0.054515
-0.247345 -0.001000 0.027691 0.003084	0.068726
-0.247525 -0.001000 0.027321 0.002956	0.125461
-0.247549 -0.001000 0.027271 0.002945	0.132091
-0.247582 -0.001000 0.027198 0.002930	0.139986
-0.247751 -0.001000 0.026827 0.002910	0.175609
-0.247877 -0.001000 0.026525 0.002650	0.192033
-0.247951 -0.001000 0.026348 0.002498	0.195072
-0.248169 -0.001000 0.025774 0.002105	0.204707
-0.248170 -0.001000 0.025771 0.002103	0.204788
-0.248170 -0.001000 0.025770 0.002102	0.204937
-0.248368 -0.001000 0.025182 0.001719	0.298737
-0.248440 -0.001000 0.024947 0.001643	0.332937
-0.248527 -0.001000 0.024649 0.001597	0.351019
-0.248614 -0.001000 0.024314 0.001365	0.364163
-0.248675 -0.001000 0.024076 0.001201	0.365148
-0.248753 -0.001000 0.023721 0.001058	0.406109
-0.248803 -0.001000 0.023497 0.000980	0.416588
-0.248845 -0.001000 0.023267 0.000888	0.458328
-0.248903 -0.001000 0.022950 0.000763	0.499085
-0.248960 -0.001000 0.022555 0.000585	0.524740
-0.248987 -0.001000 0.022369 0.000518	0.536488
-0.249000 -0.001000 0.022246 0.000475	0.541152
-0.249049 -0.001000 0.021789 0.000351	0.575385
1 2
2 3
3 4
4 5
5 6
6 7
7 8
8 9
9 10
10 11
11 12
12 13
13 14
14 15
15 16
16 17
17 18
18 19
19 20
20 21
21 22
22 23
23 24
24 25
25 26
26 27
27 28
28 29
29 30
30 31
31 32
32 33
33 34
34 35
35 36
36 37
37 38
38 39
39 40
40 41
41 42
42 43
43 44
44 45
45 46
46 47
47 48
48 49
49 50
50 51
51 52
52 53
53 54
54 55
55 56
56 57
57 58
58 59
59 60
60 61
61 62
62 63
63 64
64 65
65 66
66 67
67 68
68 69
69 70
70 71
71 72
72 73
73 74
74 75
75 76
76 77
77 78
78 79
79 80
80 81
81 82
82 83
83 84
84 85
85 86
86 87
87 88
88 89
89 90
90 91
91 92
92 93
93 94
94 95
95 96
96 97
97 98
98 99
99 100
100 101
101 102
102 103
103 104
104 105
105 106
106 107
107 108
108 109
109 110
110 111
111 112
112 113
113 114
114 115
115 116
116 117
117 118
118 119
119 120
120 121
121 122
122 123
123 124
124 125
125 126
126 127
127 128
128 129
129 130
130 131
131 132
132 133
133 134
134 135
135 136
136 137
137 138
138 139
139 140
140 141
141 142
142 143
143 144
144 145
145 146
146 147
147 148
148 149
149 150
150 151
151 152
152 153
153 154
154 155
155 156
156 157
157 158
158 159
159 160
160 161
161 162
162 163
163 164
164 165
165 166
166 167
167 168
168 169
169 170
170 171
171 172
172 173
173 174
174 175
175 176
176 177
177 178
178 179
179 180
180 181
181 182
182 183
183 184
184 185
185 186
186 187
187 188
188 189
189 190
190 191
191 192
192 193
193 194
194 195
195 196
196 197
197 198
198 199
199 200
200 201
201 202
202 203
203 204
204 205
205 206
206 207
207 208
208 209
209 210
210 211
211 212
212 213
213 214
214 215
215 216
216 217
217 218
218 219
219 220
220 221
221 222
222 223
223 224
224 225
225 226
226 227
227 228
228 229
229 230
230 231
231 232
232 233
233 234
234 235
235 236
236 237
237 238
238 239
239 240
240 241
241 242
242 243
243 244