TITLE     = "Surface mesh and solution"
VARIABLES = "x"
"y"
"z"
"cfx"
"Cp"
DATASETAUXDATA alpha_deg="  0.0000000E+00"
DATASETAUXDATA beta_deg="  0.0000000E+00"
DATASETAUXDATA bref="  0.7500000"
DATASETAUXDATA cref="   1.000000"
DATASETAUXDATA itranflg="           0"
DATASETAUXDATA ivisc="           2"
DATASETAUXDATA mach="  0.2000000"
DATASETAUXDATA reue_mil="   4.600000"
DATASETAUXDATA sref="  0.7500000"
DATASETAUXDATA tinf_r="   521.0000"
DATASETAUXDATA xmc="  0.0000000E+00"
DATASETAUXDATA ymc="  0.0000000E+00"
DATASETAUXDATA zmc="  0.0000000E+00"
ZONE T="Slice: Y=-0.73"
STRANDID=0, SOLUTIONTIME=0
Nodes=1344, Elements=1344, ZONETYPE=FELineSeg
DATAPACKING=POINT
DT=(DOUBLE DOUBLE DOUBLE DOUBLE DOUBLE )
0.746695 -0.730000 -0.065393 0.001490	0.311098
0.746913 -0.730000 -0.065380 0.001466	0.314177
0.746998 -0.730000 -0.065375 0.001462	0.317069
0.747036 -0.730000 -0.065373 0.001461	0.319886
0.747080 -0.730000 -0.065371 0.001504	0.313276
0.747101 -0.730000 -0.065369 0.001534	0.311905
0.747110 -0.730000 -0.065369 0.001266	0.303215
0.747146 -0.730000 -0.065367 0.000069	0.267429
0.747129 -0.730000 -0.065363 0.000301	0.281059
0.747091 -0.730000 -0.065354 0.000709	0.299804
0.747054 -0.730000 -0.065345 0.000700	0.292063
0.746986 -0.730000 -0.065329 0.000614	0.289268
0.746905 -0.730000 -0.065310 0.000564	0.287623
0.746815 -0.730000 -0.065289 0.000532	0.287808
0.746591 -0.730000 -0.065236 0.000500	0.286790
0.746401 -0.730000 -0.065191 0.000472	0.285603
0.745794 -0.730000 -0.065048 0.000511	0.280051
0.745501 -0.730000 -0.064979 0.000518	0.277436
0.744102 -0.730000 -0.064650 0.000606	0.257507
0.743935 -0.730000 -0.064611 0.000628	0.254739
0.743115 -0.730000 -0.064418 0.000736	0.251682
0.742299 -0.730000 -0.064226 0.000824	0.239084
0.742092 -0.730000 -0.064178 0.000850	0.236762
0.741160 -0.730000 -0.063959 0.000955	0.228853
0.740969 -0.730000 -0.063914 0.001014	0.225977
0.740204 -0.730000 -0.063735 0.001126	0.219282
0.740001 -0.730000 -0.063687 0.001153	0.217699
0.739373 -0.730000 -0.063540 0.001285	0.208543
0.739339 -0.730000 -0.063532 0.001291	0.208170
0.738287 -0.730000 -0.063285 0.001407	0.199743
0.738134 -0.730000 -0.063249 0.001421	0.197979
0.737159 -0.730000 -0.063021 0.001484	0.193603
0.736777 -0.730000 -0.062932 0.001512	0.191088
0.735923 -0.730000 -0.062732 0.001576	0.183643
0.735399 -0.730000 -0.062610 0.001603	0.181208
0.734628 -0.730000 -0.062430 0.001643	0.176102
0.733720 -0.730000 -0.062218 0.001685	0.172153
0.733338 -0.730000 -0.062129 0.001706	0.169942
0.731846 -0.730000 -0.061782 0.001756	0.163548
0.731235 -0.730000 -0.061639 0.001774	0.160617
0.729871 -0.730000 -0.061322 0.001835	0.156336
0.728129 -0.730000 -0.060917 0.001950	0.147430
0.727564 -0.730000 -0.060786 0.001977	0.145564
0.724865 -0.730000 -0.060161 0.002060	0.138052
0.723818 -0.730000 -0.059918 0.002077	0.134353
0.719933 -0.730000 -0.059021 0.002140	0.124474
0.718725 -0.730000 -0.058743 0.002167	0.122125
0.716779 -0.730000 -0.058295 0.002188	0.117205
0.714412 -0.730000 -0.057751 0.002207	0.112620
0.711178 -0.730000 -0.057010 0.002251	0.106328
0.710974 -0.730000 -0.056963 0.002253	0.105980
0.707864 -0.730000 -0.056252 0.002287	0.101498
0.707013 -0.730000 -0.056057 0.002304	0.100206
0.704519 -0.730000 -0.055488 0.002343	0.098381
0.703057 -0.730000 -0.055156 0.002369	0.096197
0.699575 -0.730000 -0.054365 0.002403	0.088531
0.699337 -0.730000 -0.054311 0.002404	0.088490
0.699233 -0.730000 -0.054287 0.002405	0.088256
0.695925 -0.730000 -0.053538 0.002405	0.088394
0.693885 -0.730000 -0.053077 0.002404	0.084513
0.692121 -0.730000 -0.052679 0.002387	0.083947
0.688949 -0.730000 -0.051964 0.002428	0.077255
0.688676 -0.730000 -0.051903 0.002430	0.077310
0.688589 -0.730000 -0.051883 0.002432	0.077025
0.684634 -0.730000 -0.050995 0.002462	0.072965
0.684595 -0.730000 -0.050986 0.002462	0.073033
0.684563 -0.730000 -0.050979 0.002462	0.072992
0.684349 -0.730000 -0.050931 0.002460	0.072807
0.680861 -0.730000 -0.050151 0.002428	0.074286
0.679067 -0.730000 -0.049750 0.002431	0.071710
0.677462 -0.730000 -0.049392 0.002421	0.073175
0.676761 -0.730000 -0.049236 0.002432	0.071736
0.674095 -0.730000 -0.048642 0.002458	0.070479
0.673238 -0.730000 -0.048452 0.002457	0.071533
0.670497 -0.730000 -0.047843 0.002469	0.068009
0.670165 -0.730000 -0.047769 0.002468	0.068226
0.669414 -0.730000 -0.047603 0.002463	0.067805
0.667082 -0.730000 -0.047087 0.002440	0.069092
0.666750 -0.730000 -0.047013 0.002443	0.068898
0.663421 -0.730000 -0.046278 0.002465	0.069043
0.662872 -0.730000 -0.046157 0.002477	0.068926
0.661876 -0.730000 -0.045937 0.002485	0.068202
0.659228 -0.730000 -0.045354 0.002486	0.070183
0.657138 -0.730000 -0.044895 0.002484	0.070456
0.655355 -0.730000 -0.044504 0.002476	0.071253
0.652323 -0.730000 -0.043840 0.002465	0.072079
0.649918 -0.730000 -0.043315 0.002460	0.070407
0.647952 -0.730000 -0.042886 0.002423	0.070913
0.644851 -0.730000 -0.042211 0.002378	0.071398
0.642615 -0.730000 -0.041725 0.002368	0.071673
0.640504 -0.730000 -0.041267 0.002365	0.073128
0.638653 -0.730000 -0.040866 0.002366	0.076257
0.635167 -0.730000 -0.040112 0.002357	0.076679
0.634567 -0.730000 -0.039982 0.002351	0.077418
0.634257 -0.730000 -0.039916 0.002353	0.077349
0.630622 -0.730000 -0.039132 0.002341	0.081267
0.628218 -0.730000 -0.038616 0.002344	0.081551
0.626579 -0.730000 -0.038264 0.002327	0.083121
0.625238 -0.730000 -0.037976 0.002315	0.083308
0.622358 -0.730000 -0.037360 0.002300	0.085282
0.619211 -0.730000 -0.036687 0.002304	0.085324
0.618450 -0.730000 -0.036525 0.002298	0.086494
0.617364 -0.730000 -0.036294 0.002304	0.086024
0.614523 -0.730000 -0.035689 0.002307	0.088791
0.611245 -0.730000 -0.034992 0.002282	0.091624
0.610168 -0.730000 -0.034764 0.002271	0.092146
0.609422 -0.730000 -0.034606 0.002273	0.092515
0.606996 -0.730000 -0.034092 0.002255	0.092302
0.605851 -0.730000 -0.033850 0.002261	0.092626
0.604388 -0.730000 -0.033541 0.002261	0.095258
0.603016 -0.730000 -0.033252 0.002236	0.094989
0.600509 -0.730000 -0.032724 0.002178	0.097342
0.596802 -0.730000 -0.031945 0.002147	0.097430
0.596320 -0.730000 -0.031844 0.002138	0.097773
0.595137 -0.730000 -0.031596 0.002153	0.097949
0.592447 -0.730000 -0.031032 0.002166	0.100491
0.591386 -0.730000 -0.030810 0.002170	0.100809
0.588566 -0.730000 -0.030221 0.002133	0.103262
0.586432 -0.730000 -0.029777 0.002109	0.103823
0.584185 -0.730000 -0.029309 0.002089	0.105694
0.580452 -0.730000 -0.028534 0.002079	0.107268
0.578908 -0.730000 -0.028214 0.002061	0.107961
0.576445 -0.730000 -0.027705 0.002067	0.108632
0.573933 -0.730000 -0.027186 0.002036	0.110410
0.571260 -0.730000 -0.026634 0.001986	0.112464
0.567073 -0.730000 -0.025773 0.001966	0.113400
0.566712 -0.730000 -0.025699 0.001962	0.113536
0.561907 -0.730000 -0.024714 0.002016	0.116285
0.561658 -0.730000 -0.024663 0.002021	0.116413
0.560853 -0.730000 -0.024498 0.002032	0.116509
0.558002 -0.730000 -0.023916 0.002047	0.118771
0.556469 -0.730000 -0.023603 0.002034	0.118241
0.554059 -0.730000 -0.023112 0.001947	0.119648
0.550889 -0.730000 -0.022469 0.001921	0.120000
0.549208 -0.730000 -0.022128 0.001902	0.121380
0.547242 -0.730000 -0.021730 0.001902	0.122149
0.544102 -0.730000 -0.021095 0.001892	0.123953
0.540863 -0.730000 -0.020442 0.001884	0.124350
0.539262 -0.730000 -0.020119 0.001857	0.124908
0.537851 -0.730000 -0.019836 0.001868	0.124792
0.534905 -0.730000 -0.019244 0.001838	0.125923
0.530897 -0.730000 -0.018442 0.001783	0.126503
0.529836 -0.730000 -0.018229 0.001769	0.127262
0.528996 -0.730000 -0.018061 0.001772	0.127372
0.524351 -0.730000 -0.017135 0.001809	0.129417
0.521353 -0.730000 -0.016539 0.001797	0.129389
0.518434 -0.730000 -0.015960 0.001767	0.129633
0.515741 -0.730000 -0.015426 0.001732	0.130195
0.513759 -0.730000 -0.015036 0.001717	0.130876
0.511454 -0.730000 -0.014580 0.001767	0.131414
0.510957 -0.730000 -0.014482 0.001771	0.131642
0.507908 -0.730000 -0.013882 0.001747	0.132224
0.507401 -0.730000 -0.013783 0.001740	0.132234
0.505202 -0.730000 -0.013351 0.001730	0.132761
0.504158 -0.730000 -0.013147 0.001714	0.132773
0.502892 -0.730000 -0.012899 0.001656	0.132792
0.501307 -0.730000 -0.012589 0.001627	0.133038
0.500863 -0.730000 -0.012502 0.001625	0.133217
0.500532 -0.730000 -0.012437 0.001629	0.133338
0.498231 -0.730000 -0.011988 0.001668	0.134337
0.497702 -0.730000 -0.011885 0.001668	0.134460
0.496984 -0.730000 -0.011744 0.001666	0.134427
0.494501 -0.730000 -0.011261 0.001652	0.134912
0.492919 -0.730000 -0.010953 0.001640	0.135057
0.488878 -0.730000 -0.010169 0.001650	0.135585
0.487544 -0.730000 -0.009910 0.001650	0.135682
0.484773 -0.730000 -0.009375 0.001645	0.136012
0.481788 -0.730000 -0.008798 0.001646	0.136688
0.479463 -0.730000 -0.008351 0.001645	0.136939
0.475138 -0.730000 -0.007520 0.001653	0.137265
0.470021 -0.730000 -0.006542 0.001619	0.137137
0.468877 -0.730000 -0.006323 0.001594	0.137138
0.467902 -0.730000 -0.006137 0.001608	0.137187
0.460429 -0.730000 -0.004717 0.001615	0.137157
0.458823 -0.730000 -0.004413 0.001616	0.137257
0.451036 -0.730000 -0.002943 0.001571	0.137574
0.451013 -0.730000 -0.002938 0.001571	0.137575
0.451008 -0.730000 -0.002937 0.001571	0.137575
0.445206 -0.730000 -0.001849 0.001578	0.137585
0.442303 -0.730000 -0.001307 0.001538	0.137401
0.439927 -0.730000 -0.000863 0.001505	0.137289
0.438754 -0.730000 -0.000645 0.001508	0.137231
0.434486 -0.730000 0.000148 0.001526	0.136866
0.430423 -0.730000 0.000900 0.001546	0.136644
0.428642 -0.730000 0.001230 0.001553	0.136390
0.423950 -0.730000 0.002094 0.001526	0.136154
0.420982 -0.730000 0.002639 0.001522	0.136045
0.416964 -0.730000 0.003375 0.001550	0.135888
0.411828 -0.730000 0.004311 0.001525	0.135385
0.409555 -0.730000 0.004725 0.001507	0.135249
0.405647 -0.730000 0.005432 0.001489	0.134657
0.401649 -0.730000 0.006156 0.001491	0.133975
0.397368 -0.730000 0.006926 0.001499	0.133079
0.394634 -0.730000 0.007417 0.001514	0.132612
0.390466 -0.730000 0.008160 0.001539	0.132303
0.386915 -0.730000 0.008795 0.001537	0.131858
0.384151 -0.730000 0.009285 0.001550	0.131422
0.378150 -0.730000 0.010346 0.001532	0.130207
0.373726 -0.730000 0.011123 0.001547	0.128780
0.370144 -0.730000 0.011754 0.001602	0.127342
0.365336 -0.730000 0.012591 0.001645	0.125868
0.362288 -0.730000 0.013123 0.001619	0.125294
0.359301 -0.730000 0.013640 0.001586	0.124804
0.356631 -0.730000 0.014101 0.001582	0.124237
0.354239 -0.730000 0.014515 0.001568	0.123553
0.350065 -0.730000 0.015231 0.001578	0.122467
0.347742 -0.730000 0.015631 0.001569	0.121941
0.342208 -0.730000 0.016574 0.001566	0.120673
0.340774 -0.730000 0.016819 0.001558	0.120215
0.339112 -0.730000 0.017101 0.001570	0.119946
0.333320 -0.730000 0.018080 0.001551	0.118647
0.328004 -0.730000 0.018974 0.001599	0.116927
0.326281 -0.730000 0.019262 0.001599	0.116445
0.320536 -0.730000 0.020219 0.001541	0.115233
0.318936 -0.730000 0.020484 0.001534	0.114766
0.312551 -0.730000 0.021538 0.001618	0.112695
0.312273 -0.730000 0.021584 0.001623	0.112631
0.310300 -0.730000 0.021907 0.001629	0.111817
0.305799 -0.730000 0.022645 0.001646	0.109970
0.305535 -0.730000 0.022688 0.001644	0.109863
0.305055 -0.730000 0.022766 0.001642	0.109770
0.300039 -0.730000 0.023582 0.001636	0.108413
0.295576 -0.730000 0.024303 0.001639	0.107223
0.294517 -0.730000 0.024473 0.001629	0.106911
0.289509 -0.730000 0.025277 0.001657	0.105342
0.287563 -0.730000 0.025587 0.001693	0.104875
0.284204 -0.730000 0.026122 0.001717	0.103519
0.280111 -0.730000 0.026770 0.001724	0.102449
0.278800 -0.730000 0.026977 0.001720	0.101915
0.275859 -0.730000 0.027438 0.001703	0.101020
0.272799 -0.730000 0.027919 0.001676	0.099701
0.272286 -0.730000 0.027999 0.001673	0.099483
0.271298 -0.730000 0.028153 0.001689	0.099145
0.266239 -0.730000 0.028940 0.001750	0.096298
0.263318 -0.730000 0.029391 0.001764	0.094708
0.260900 -0.730000 0.029763 0.001748	0.093582
0.258567 -0.730000 0.030122 0.001720	0.092067
0.256316 -0.730000 0.030466 0.001756	0.091685
0.253537 -0.730000 0.030890 0.001744	0.090552
0.249978 -0.730000 0.031429 0.001736	0.089206
0.246932 -0.730000 0.031889 0.001749	0.088112
0.244417 -0.730000 0.032267 0.001727	0.086469
0.241872 -0.730000 0.032647 0.001732	0.085919
0.239153 -0.730000 0.033053 0.001739	0.084685
0.237106 -0.730000 0.033356 0.001764	0.084348
0.234543 -0.730000 0.033735 0.001767	0.083172
0.231354 -0.730000 0.034204 0.001790	0.081717
0.228960 -0.730000 0.034556 0.001816	0.080079
0.225211 -0.730000 0.035100 0.001779	0.079434
0.224595 -0.730000 0.035190 0.001772	0.079120
0.219391 -0.730000 0.035943 0.001789	0.076696
0.217938 -0.730000 0.036151 0.001800	0.076365
0.213708 -0.730000 0.036757 0.001873	0.074977
0.210793 -0.730000 0.037170 0.001891	0.073787
0.209066 -0.730000 0.037414 0.001883	0.072546
0.208531 -0.730000 0.037490 0.001899	0.072392
0.204166 -0.730000 0.038103 0.001893	0.070203
0.202689 -0.730000 0.038309 0.001888	0.069876
0.198754 -0.730000 0.038856 0.001839	0.069007
0.197826 -0.730000 0.038984 0.001836	0.068560
0.193955 -0.730000 0.039517 0.001870	0.065827
0.189052 -0.730000 0.040184 0.001897	0.063959
0.188313 -0.730000 0.040285 0.001900	0.063563
0.186727 -0.730000 0.040498 0.001901	0.063003
0.182187 -0.730000 0.041111 0.001881	0.060563
0.181381 -0.730000 0.041219 0.001871	0.060092
0.178703 -0.730000 0.041575 0.001876	0.059206
0.176339 -0.730000 0.041889 0.001860	0.057718
0.174431 -0.730000 0.042140 0.001884	0.057181
0.171523 -0.730000 0.042522 0.001912	0.055342
0.170160 -0.730000 0.042699 0.001928	0.055492
0.166772 -0.730000 0.043139 0.001964	0.053592
0.163531 -0.730000 0.043555 0.001970	0.052431
0.162065 -0.730000 0.043743 0.001950	0.051803
0.156851 -0.730000 0.044404 0.001981	0.048743
0.156780 -0.730000 0.044413 0.001981	0.048712
0.152635 -0.730000 0.044934 0.001946	0.046467
0.151029 -0.730000 0.045134 0.001930	0.046108
0.148277 -0.730000 0.045476 0.001947	0.044468
0.146382 -0.730000 0.045709 0.001968	0.043751
0.143810 -0.730000 0.046026 0.002010	0.042020
0.140803 -0.730000 0.046390 0.002043	0.041740
0.139181 -0.730000 0.046587 0.002037	0.041037
0.136922 -0.730000 0.046857 0.002090	0.040594
0.135185 -0.730000 0.047066 0.002079	0.039583
0.132001 -0.730000 0.047442 0.002174	0.038510
0.131085 -0.730000 0.047551 0.002186	0.037957
0.130898 -0.730000 0.047572 0.002189	0.037795
0.127725 -0.730000 0.047945 0.002172	0.034363
0.126347 -0.730000 0.048104 0.002186	0.034248
0.124131 -0.730000 0.048362 0.002168	0.032791
0.122546 -0.730000 0.048544 0.002135	0.031669
0.118539 -0.730000 0.049001 0.002138	0.030208
0.118319 -0.730000 0.049027 0.002140	0.030007
0.116906 -0.730000 0.049186 0.002187	0.029354
0.114971 -0.730000 0.049404 0.002241	0.028091
0.114656 -0.730000 0.049440 0.002237	0.028058
0.111452 -0.730000 0.049797 0.002165	0.025878
0.109060 -0.730000 0.050061 0.002202	0.025421
0.107586 -0.730000 0.050223 0.002206	0.024771
0.104277 -0.730000 0.050583 0.002242	0.023232
0.102775 -0.730000 0.050745 0.002227	0.022436
0.099329 -0.730000 0.051113 0.002179	0.020329
0.097875 -0.730000 0.051268 0.002194	0.019837
0.094911 -0.730000 0.051579 0.002185	0.019077
0.093201 -0.730000 0.051758 0.002240	0.018383
0.090710 -0.730000 0.052015 0.002246	0.017321
0.087410 -0.730000 0.052353 0.002470	0.015975
0.086839 -0.730000 0.052411 0.002500	0.015492
0.084566 -0.730000 0.052639 0.002436	0.014654
0.082619 -0.730000 0.052834 0.002365	0.013491
0.082392 -0.730000 0.052857 0.002356	0.013390
0.077859 -0.730000 0.053305 0.002326	0.012025
0.077705 -0.730000 0.053320 0.002320	0.011903
0.077410 -0.730000 0.053348 0.002327	0.011913
0.073104 -0.730000 0.053764 0.002292	0.009242
0.071620 -0.730000 0.053904 0.002269	0.007669
0.067765 -0.730000 0.054268 0.002289	0.006424
0.067702 -0.730000 0.054274 0.002288	0.006376
0.067622 -0.730000 0.054282 0.002289	0.006366
0.063495 -0.730000 0.054663 0.002269	0.004394
0.062365 -0.730000 0.054767 0.002309	0.003852
0.059638 -0.730000 0.055013 0.002401	0.003366
0.058511 -0.730000 0.055115 0.002441	0.002925
0.055962 -0.730000 0.055341 0.002559	0.000511
0.054787 -0.730000 0.055445 0.002556	-0.000395
0.052699 -0.730000 0.055626 0.002444	-0.002496
0.049835 -0.730000 0.055873 0.002420	-0.002617
0.048885 -0.730000 0.055954 0.002401	-0.002849
0.047170 -0.730000 0.056099 0.002450	-0.003135
0.044961 -0.730000 0.056284 0.002472	-0.004134
0.041158 -0.730000 0.056594 0.002545	-0.004568
0.041068 -0.730000 0.056601 0.002547	-0.004600
0.037226 -0.730000 0.056909 0.002726	-0.007694
0.036089 -0.730000 0.056998 0.002751	-0.008182
0.033030 -0.730000 0.057237 0.002743	-0.011226
0.030484 -0.730000 0.057432 0.002694	-0.012837
0.028909 -0.730000 0.057550 0.002590	-0.014439
0.028165 -0.730000 0.057606 0.002594	-0.015038
0.025340 -0.730000 0.057815 0.002609	-0.016225
0.024233 -0.730000 0.057896 0.002641	-0.016416
0.022124 -0.730000 0.058048 0.002652	-0.017899
0.019418 -0.730000 0.058239 0.002715	-0.018192
0.018757 -0.730000 0.058285 0.002722	-0.018693
0.016927 -0.730000 0.058412 0.002862	-0.019037
0.015191 -0.730000 0.058531 0.002918	-0.020222
0.011202 -0.730000 0.058798 0.002965	-0.021609
0.011199 -0.730000 0.058798 0.002965	-0.021611
0.011199 -0.730000 0.058798 0.002965	-0.021611
0.011198 -0.730000 0.058798 0.002965	-0.021611
0.006939 -0.730000 0.059071 0.002667	-0.023067
0.005552 -0.730000 0.059159 0.002731	-0.023731
0.002890 -0.730000 0.059322 0.002865	-0.025421
0.001560 -0.730000 0.059403 0.002887	-0.026497
-0.001350 -0.730000 0.059574 0.002805	-0.027856
-0.002276 -0.730000 0.059629 0.002794	-0.028476
-0.003948 -0.730000 0.059725 0.002815	-0.028571
-0.006599 -0.730000 0.059875 0.002776	-0.029360
-0.009350 -0.730000 0.060023 0.002883	-0.030572
-0.010966 -0.730000 0.060109 0.002834	-0.031889
-0.011736 -0.730000 0.060150 0.002861	-0.032020
-0.015285 -0.730000 0.060331 0.002775	-0.033095
-0.016681 -0.730000 0.060400 0.002818	-0.033005
-0.019100 -0.730000 0.060516 0.002895	-0.034886
-0.020370 -0.730000 0.060575 0.002900	-0.036038
-0.022008 -0.730000 0.060650 0.002940	-0.037522
-0.024286 -0.730000 0.060753 0.002994	-0.038370
-0.025750 -0.730000 0.060818 0.002984	-0.039258
-0.028660 -0.730000 0.060939 0.003041	-0.039877
-0.029790 -0.730000 0.060986 0.003031	-0.040429
-0.030918 -0.730000 0.061030 0.003079	-0.040774
-0.033560 -0.730000 0.061134 0.003094	-0.041989
-0.034287 -0.730000 0.061161 0.003148	-0.042632
-0.036735 -0.730000 0.061249 0.003105	-0.045410
-0.038262 -0.730000 0.061302 0.003175	-0.046117
-0.040302 -0.730000 0.061371 0.003266	-0.048524
-0.042983 -0.730000 0.061456 0.003117	-0.051402
-0.044112 -0.730000 0.061491 0.003093	-0.052379
-0.047881 -0.730000 0.061600 0.003151	-0.054494
-0.048064 -0.730000 0.061605 0.003145	-0.054617
-0.048605 -0.730000 0.061619 0.003171	-0.054413
-0.051235 -0.730000 0.061688 0.003251	-0.054349
-0.051750 -0.730000 0.061701 0.003241	-0.054637
-0.054078 -0.730000 0.061755 0.003215	-0.057416
-0.056718 -0.730000 0.061812 0.003267	-0.057377
-0.057309 -0.730000 0.061824 0.003294	-0.057471
-0.058927 -0.730000 0.061854 0.003303	-0.058742
-0.060452 -0.730000 0.061883 0.003280	-0.060598
-0.061470 -0.730000 0.061899 0.003300	-0.060849
-0.063871 -0.730000 0.061939 0.003345	-0.063317
-0.066784 -0.730000 0.061976 0.003287	-0.062912
-0.068016 -0.730000 0.061993 0.003231	-0.063286
-0.069082 -0.730000 0.062003 0.003260	-0.063847
-0.072084 -0.730000 0.062031 0.003425	-0.064871
-0.073187 -0.730000 0.062039 0.003429	-0.065551
-0.076314 -0.730000 0.062056 0.003370	-0.065851
-0.077279 -0.730000 0.062059 0.003349	-0.067419
-0.080063 -0.730000 0.062063 0.003364	-0.068817
-0.081698 -0.730000 0.062062 0.003371	-0.068481
-0.083864 -0.730000 0.062057 0.003332	-0.072234
-0.085855 -0.730000 0.062049 0.003392	-0.075008
-0.087468 -0.730000 0.062039 0.003422	-0.075050
-0.088866 -0.730000 0.062031 0.003446	-0.075023
-0.089370 -0.730000 0.062026 0.003441	-0.075474
-0.091980 -0.730000 0.062000 0.003389	-0.074972
-0.092334 -0.730000 0.061996 0.003406	-0.075166
-0.093707 -0.730000 0.061978 0.003402	-0.077000
-0.095379 -0.730000 0.061957 0.003415	-0.079480
-0.097013 -0.730000 0.061930 0.003397	-0.080781
-0.098373 -0.730000 0.061908 0.003372	-0.081507
-0.099116 -0.730000 0.061895 0.003385	-0.082213
-0.101430 -0.730000 0.061850 0.003410	-0.083537
-0.104170 -0.730000 0.061789 0.003561	-0.085727
-0.104538 -0.730000 0.061781 0.003588	-0.086042
-0.104762 -0.730000 0.061776 0.003586	-0.086199
-0.107859 -0.730000 0.061693 0.003765	-0.086339
-0.107941 -0.730000 0.061691 0.003769	-0.086372
-0.110846 -0.730000 0.061601 0.003665	-0.089383
-0.111120 -0.730000 0.061592 0.003653	-0.089713
-0.113215 -0.730000 0.061523 0.003746	-0.089818
-0.114237 -0.730000 0.061487 0.003716	-0.090435
-0.115975 -0.730000 0.061423 0.003782	-0.092415
-0.117775 -0.730000 0.061350 0.003798	-0.095308
-0.119431 -0.730000 0.061285 0.003873	-0.098542
-0.121358 -0.730000 0.061202 0.003772	-0.100710
-0.122419 -0.730000 0.061154 0.003668	-0.101255
-0.125531 -0.730000 0.061004 0.003550	-0.097464
-0.125812 -0.730000 0.060990 0.003555	-0.097135
-0.129517 -0.730000 0.060790 0.003719	-0.100932
-0.130031 -0.730000 0.060761 0.003729	-0.101519
-0.132642 -0.730000 0.060608 0.004041	-0.105159
-0.133110 -0.730000 0.060580 0.004080	-0.105699
-0.133523 -0.730000 0.060554 0.004067	-0.105993
-0.136398 -0.730000 0.060372 0.003868	-0.107607
-0.136908 -0.730000 0.060338 0.003875	-0.108385
-0.138477 -0.730000 0.060231 0.003901	-0.110629
-0.140148 -0.730000 0.060117 0.003931	-0.111993
-0.141271 -0.730000 0.060034 0.003920	-0.112732
-0.143177 -0.730000 0.059892 0.003890	-0.112081
-0.144085 -0.730000 0.059821 0.003934	-0.112483
-0.147032 -0.730000 0.059585 0.004242	-0.113077
-0.147534 -0.730000 0.059544 0.004320	-0.112691
-0.148391 -0.730000 0.059467 0.004169	-0.113144
-0.150696 -0.730000 0.059269 0.003776	-0.115309
-0.153389 -0.730000 0.059021 0.003810	-0.119114
-0.153857 -0.730000 0.058979 0.003844	-0.120186
-0.154064 -0.730000 0.058958 0.003835	-0.120203
-0.157491 -0.730000 0.058621 0.003953	-0.123753
-0.158050 -0.730000 0.058563 0.003952	-0.125310
-0.161241 -0.730000 0.058223 0.004237	-0.124534
-0.161569 -0.730000 0.058187 0.004262	-0.124176
-0.162385 -0.730000 0.058095 0.004286	-0.125603
-0.164239 -0.730000 0.057885 0.004318	-0.126252
-0.165885 -0.730000 0.057688 0.004396	-0.129763
-0.166858 -0.730000 0.057573 0.004430	-0.129934
-0.167228 -0.730000 0.057527 0.004425	-0.130962
-0.169343 -0.730000 0.057263 0.004340	-0.131869
-0.170957 -0.730000 0.057054 0.004296	-0.131753
-0.171437 -0.730000 0.056991 0.004304	-0.132195
-0.173348 -0.730000 0.056733 0.004398	-0.137601
-0.174083 -0.730000 0.056631 0.004383	-0.138311
-0.175802 -0.730000 0.056388 0.004379	-0.137507
-0.177255 -0.730000 0.056176 0.004306	-0.137924
-0.178224 -0.730000 0.056032 0.004266	-0.140466
-0.179740 -0.730000 0.055800 0.004137	-0.143096
-0.179895 -0.730000 0.055777 0.004141	-0.143290
-0.180425 -0.730000 0.055694 0.004266	-0.143990
-0.181656 -0.730000 0.055501 0.004599	-0.144426
-0.182340 -0.730000 0.055391 0.004606	-0.145528
-0.183586 -0.730000 0.055187 0.004545	-0.145443
-0.185109 -0.730000 0.054929 0.004442	-0.145673
-0.185449 -0.730000 0.054872 0.004397	-0.145256
-0.185685 -0.730000 0.054831 0.004406	-0.145816
-0.187640 -0.730000 0.054489 0.004573	-0.149398
-0.188072 -0.730000 0.054412 0.004599	-0.151229
-0.189822 -0.730000 0.054091 0.004439	-0.153264
-0.190467 -0.730000 0.053971 0.004475	-0.153024
-0.192112 -0.730000 0.053656 0.004477	-0.157165
-0.192703 -0.730000 0.053543 0.004518	-0.157179
-0.193069 -0.730000 0.053469 0.004552	-0.156504
-0.194085 -0.730000 0.053266 0.004602	-0.150385
-0.194556 -0.730000 0.053170 0.004705	-0.154274
-0.195332 -0.730000 0.053012 0.004771	-0.154769
-0.197182 -0.730000 0.052622 0.004686	-0.163008
-0.197242 -0.730000 0.052610 0.004687	-0.163072
-0.197265 -0.730000 0.052605 0.004683	-0.163121
-0.197344 -0.730000 0.052588 0.004687	-0.163195
-0.198890 -0.730000 0.052251 0.004696	-0.163327
-0.199545 -0.730000 0.052104 0.004633	-0.161643
-0.200393 -0.730000 0.051913 0.004670	-0.164171
-0.201179 -0.730000 0.051731 0.004629	-0.164889
-0.201850 -0.730000 0.051576 0.004653	-0.166493
-0.203005 -0.730000 0.051299 0.004772	-0.171362
-0.203538 -0.730000 0.051171 0.004741	-0.171187
-0.203770 -0.730000 0.051114 0.004747	-0.170975
-0.205196 -0.730000 0.050761 0.004825	-0.168283
-0.205282 -0.730000 0.050740 0.004827	-0.167880
-0.205770 -0.730000 0.050614 0.004800	-0.169102
-0.206700 -0.730000 0.050375 0.004761	-0.168948
-0.206990 -0.730000 0.050300 0.004766	-0.168771
-0.208472 -0.730000 0.049907 0.004819	-0.175480
-0.208509 -0.730000 0.049897 0.004814	-0.175508
-0.209230 -0.730000 0.049699 0.004821	-0.174107
-0.210101 -0.730000 0.049460 0.004823	-0.172221
-0.210117 -0.730000 0.049455 0.004822	-0.172081
-0.210193 -0.730000 0.049434 0.004838	-0.172341
-0.211390 -0.730000 0.049095 0.004992	-0.171453
-0.211966 -0.730000 0.048926 0.005011	-0.172926
-0.212703 -0.730000 0.048710 0.004885	-0.170566
-0.213264 -0.730000 0.048541 0.004874	-0.172197
-0.213926 -0.730000 0.048341 0.004875	-0.170639
-0.215035 -0.730000 0.047997 0.004918	-0.171379
-0.215189 -0.730000 0.047949 0.004887	-0.171998
-0.215365 -0.730000 0.047892 0.004851	-0.172182
-0.216380 -0.730000 0.047569 0.004621	-0.174510
-0.217373 -0.730000 0.047242 0.004628	-0.172980
-0.217482 -0.730000 0.047206 0.004634	-0.172810
-0.218505 -0.730000 0.046861 0.004669	-0.175110
-0.218939 -0.730000 0.046711 0.004591	-0.176925
-0.219812 -0.730000 0.046406 0.004349	-0.178349
-0.220274 -0.730000 0.046242 0.004258	-0.176899
-0.220976 -0.730000 0.045988 0.004400	-0.172868
-0.221326 -0.730000 0.045860 0.004554	-0.170933
-0.221724 -0.730000 0.045712 0.004579	-0.172170
-0.222127 -0.730000 0.045561 0.004366	-0.173484
-0.222617 -0.730000 0.045374 0.004289	-0.181546
-0.222948 -0.730000 0.045248 0.004084	-0.184860
-0.223391 -0.730000 0.045074 0.003861	-0.185095
-0.223849 -0.730000 0.044895 0.003583	-0.182229
-0.224639 -0.730000 0.044577 0.003521	-0.172143
-0.224834 -0.730000 0.044499 0.003510	-0.171854
-0.225550 -0.730000 0.044203 0.003421	-0.175732
-0.226215 -0.730000 0.043922 0.003214	-0.175990
-0.226646 -0.730000 0.043738 0.003095	-0.174623
-0.227463 -0.730000 0.043380 0.003000	-0.172265
-0.227602 -0.730000 0.043320 0.002929	-0.171229
-0.227662 -0.730000 0.043293 0.002940	-0.171391
-0.228035 -0.730000 0.043124 0.002921	-0.174812
-0.228463 -0.730000 0.042931 0.002911	-0.175851
-0.228854 -0.730000 0.042750 0.002875	-0.175775
-0.229261 -0.730000 0.042560 0.002813	-0.172795
-0.229327 -0.730000 0.042529 0.002828	-0.172476
-0.229496 -0.730000 0.042448 0.002804	-0.171599
-0.230212 -0.730000 0.042105 0.002826	-0.161367
-0.230572 -0.730000 0.041928 0.002803	-0.156386
-0.231098 -0.730000 0.041665 0.002856	-0.157619
-0.231300 -0.730000 0.041563 0.002857	-0.157870
-0.231381 -0.730000 0.041523 0.002872	-0.157140
-0.231523 -0.730000 0.041449 0.002840	-0.156917
-0.232113 -0.730000 0.041144 0.002797	-0.148769
-0.232319 -0.730000 0.041035 0.002804	-0.146564
-0.232755 -0.730000 0.040803 0.002806	-0.147107
-0.232940 -0.730000 0.040703 0.002816	-0.146650
-0.233278 -0.730000 0.040518 0.002846	-0.143082
-0.233627 -0.730000 0.040325 0.002892	-0.140672
-0.233928 -0.730000 0.040156 0.002930	-0.139617
-0.234190 -0.730000 0.040007 0.002945	-0.135587
-0.234557 -0.730000 0.039795 0.003036	-0.137195
-0.234692 -0.730000 0.039717 0.003047	-0.135051
-0.234806 -0.730000 0.039650 0.003075	-0.134370
-0.235154 -0.730000 0.039444 0.003066	-0.124289
-0.235710 -0.730000 0.039108 0.003167	-0.125931
-0.235710 -0.730000 0.039108 0.003167	-0.125930
-0.235710 -0.730000 0.039108 0.003167	-0.125930
-0.236144 -0.730000 0.038840 0.003117	-0.115153
-0.236316 -0.730000 0.038731 0.003154	-0.115386
-0.236548 -0.730000 0.038584 0.003169	-0.112396
-0.236597 -0.730000 0.038553 0.003180	-0.112107
-0.236950 -0.730000 0.038325 0.003230	-0.109705
-0.236981 -0.730000 0.038305 0.003241	-0.109356
-0.237343 -0.730000 0.038067 0.003268	-0.101281
-0.237496 -0.730000 0.037964 0.003269	-0.099093
-0.237761 -0.730000 0.037785 0.003342	-0.093103
-0.237950 -0.730000 0.037656 0.003408	-0.089870
-0.238136 -0.730000 0.037527 0.003441	-0.088962
-0.238384 -0.730000 0.037354 0.003436	-0.086684
-0.238524 -0.730000 0.037254 0.003414	-0.081462
-0.238804 -0.730000 0.037053 0.003417	-0.071392
-0.238920 -0.730000 0.036969 0.003437	-0.068085
-0.239117 -0.730000 0.036824 0.003437	-0.060731
-0.239271 -0.730000 0.036710 0.003476	-0.059381
-0.239502 -0.730000 0.036537 0.003574	-0.054191
-0.239720 -0.730000 0.036371 0.003594	-0.050118
-0.239894 -0.730000 0.036236 0.003500	-0.045605
-0.240097 -0.730000 0.036077 0.003496	-0.037807
-0.240299 -0.730000 0.035917 0.003539	-0.034922
-0.240412 -0.730000 0.035827 0.003538	-0.032090
-0.240643 -0.730000 0.035640 0.003577	-0.022853
-0.240699 -0.730000 0.035594 0.003577	-0.020007
-0.241001 -0.730000 0.035343 0.003623	-0.014929
-0.241100 -0.730000 0.035259 0.003649	-0.013477
-0.241311 -0.730000 0.035081 0.003638	-0.003898
-0.241460 -0.730000 0.034952 0.003674	0.000477
-0.241586 -0.730000 0.034842 0.003710	0.002839
-0.241879 -0.730000 0.034582 0.003634	0.018832
-0.241890 -0.730000 0.034572 0.003631	0.019339
-0.241895 -0.730000 0.034567 0.003631	0.019859
-0.242089 -0.730000 0.034390 0.003632	0.024828
-0.242278 -0.730000 0.034218 0.003632	0.029793
-0.242283 -0.730000 0.034213 0.003634	0.029989
-0.242384 -0.730000 0.034118 0.003675	0.034731
-0.242605 -0.730000 0.033910 0.003763	0.045317
-0.242616 -0.730000 0.033900 0.003770	0.045835
-0.242628 -0.730000 0.033888 0.003772	0.046576
-0.242876 -0.730000 0.033648 0.003785	0.061298
-0.243005 -0.730000 0.033521 0.003799	0.065862
-0.243149 -0.730000 0.033377 0.003778	0.071365
-0.243297 -0.730000 0.033227 0.003740	0.080976
-0.243459 -0.730000 0.033060 0.003664	0.087918
-0.243584 -0.730000 0.032930 0.003705	0.095100
-0.243789 -0.730000 0.032712 0.003684	0.109255
-0.243832 -0.730000 0.032666 0.003656	0.111851
-0.243854 -0.730000 0.032642 0.003660	0.113026
-0.244072 -0.730000 0.032403 0.003747	0.126141
-0.244098 -0.730000 0.032375 0.003738	0.127674
-0.244332 -0.730000 0.032110 0.003622	0.138946
-0.244354 -0.730000 0.032085 0.003629	0.140667
-0.244580 -0.730000 0.031822 0.003628	0.159212
-0.244620 -0.730000 0.031775 0.003609	0.162831
-0.244696 -0.730000 0.031684 0.003578	0.167970
-0.244859 -0.730000 0.031487 0.003493	0.181209