TITLE     = "Surface mesh and solution"
VARIABLES = "x"
"y"
"z"
"cfx"
"Cp"
ZONE T="Slice: Y=-0.001"
STRANDID=0, SOLUTIONTIME=0
Nodes=405, Elements=404, ZONETYPE=FELineSeg
DATAPACKING=POINT
DT=(DOUBLE DOUBLE DOUBLE DOUBLE DOUBLE )
0.5138667800	-0.0009999500	-0.0150565640	0.0008915797	0.2360634200
0.5213446000	-0.0009999500	-0.0165373310	0.0008749396	0.2414085000
0.5287907100	-0.0009999500	-0.0180200410	0.0008516091	0.2467416700
0.5361785900	-0.0009999500	-0.0194992590	0.0008271982	0.2520345400
0.5434724100	-0.0009999500	-0.0209675790	0.0008106492	0.2572899800
0.5506414800	-0.0009999500	-0.0224184820	0.0007934461	0.2624740000
0.5576724400	-0.0009999500	-0.0238488560	0.0007816978	0.2675833400
0.5645709000	-0.0009999500	-0.0252594630	0.0007709014	0.2726567400
0.5713553400	-0.0009999500	-0.0266536960	0.0007480177	0.2776327400
0.5780492400	-0.0009999500	-0.0280361230	0.0007245362	0.2826000500
0.5846750100	-0.0009999500	-0.0294111560	0.0007119432	0.2875872300
0.5912478000	-0.0009999500	-0.0307817810	0.0006989442	0.2925542300
0.5977743300	-0.0009999500	-0.0321493150	0.0006794720	0.2975316000
0.6042514400	-0.0009999500	-0.0335129720	0.0006600001	0.3025072800
0.6106615100	-0.0009999500	-0.0348689220	0.0006397474	0.3074820300
0.6169644600	-0.0009999500	-0.0362084660	0.0006180658	0.3124234100
0.6231004600	-0.0009999500	-0.0375185350	0.0005944221	0.3172888800
0.6289970300	-0.0009999500	-0.0387831000	0.0005687678	0.3220311100
0.6345897900	-0.0009999500	-0.0399876500	0.0005416686	0.3266001000
0.6398374400	-0.0009999500	-0.0411224590	0.0005139860	0.3309554800
0.6447323600	-0.0009999500	-0.0421850010	0.0004866785	0.3351498200
0.6496231000	-0.0009999500	-0.0432505530	0.0004606432	0.3393040900
0.6543443800	-0.0009999500	-0.0442829210	0.0004363526	0.3434265600
0.6588783300	-0.0009999500	-0.0452778190	0.0004138764	0.3474575300
0.6631871500	-0.0009999500	-0.0462264870	0.0003930812	0.3513539700
0.6672428800	-0.0009999500	-0.0471222880	0.0003739031	0.3550716000
0.6710397000	-0.0009999500	-0.0479634260	0.0003563632	0.3585918800
0.6745934500	-0.0009999500	-0.0487529450	0.0003403042	0.3619195500
0.6779308300	-0.0009999500	-0.0494963640	0.0003254290	0.3650754400
0.6810805200	-0.0009999500	-0.0501997400	0.0003114928	0.3680817200
0.6840687400	-0.0009999500	-0.0508686490	0.0002984923	0.3709608600
0.6869190900	-0.0009999500	-0.0515081550	0.0002864265	0.3737265800
0.6896542300	-0.0009999500	-0.0521231440	0.0002748613	0.3764158800
0.6922959100	-0.0009999500	-0.0527183750	0.0002616884	0.3790411400
0.6948622500	-0.0009999500	-0.0532978140	0.0002472176	0.3815854200
0.6973693400	-0.0009999500	-0.0538650120	0.0002350651	0.3840843400
0.6998299400	-0.0009999500	-0.0544227770	0.0002250899	0.3865967400
0.7022518500	-0.0009999500	-0.0549728420	0.0002138333	0.3890899400
0.7046393800	-0.0009999500	-0.0555161350	0.0002008233	0.3915442800
0.7069937600	-0.0009999500	-0.0560529050	0.0001879471	0.3939941800
0.7093149400	-0.0009999500	-0.0565830840	0.0001756186	0.3964290900
0.7116029300	-0.0009999500	-0.0571066510	0.0001633366	0.3988509800
0.7138583100	-0.0009999500	-0.0576237100	0.0001502624	0.4012715500
0.7160817400	-0.0009999500	-0.0581343510	0.0001372522	0.4036394100
0.7182725100	-0.0009999500	-0.0586383980	0.0001257178	0.4059987700
0.7204281100	-0.0009999500	-0.0591352280	0.0001146460	0.4083626300
0.7225432400	-0.0009999500	-0.0596235730	0.0001031448	0.4106712900
0.7246086600	-0.0009999500	-0.0601012480	0.0000914633	0.4129371600
0.7266091700	-0.0009999500	-0.0605647010	0.0000797788	0.4151740400
0.7285449500	-0.0009999500	-0.0610138550	0.0000689119	0.4173093100
0.7303956700	-0.0009999500	-0.0614439510	0.0000580838	0.4193110500
0.7321432200	-0.0009999500	-0.0618506710	0.0000474365	0.4213491400
0.7337727000	-0.0009999500	-0.0622304490	0.0000383125	0.4232545800
0.7352694900	-0.0009999500	-0.0625797580	0.0000288616	0.4249202000
0.7366251900	-0.0009999500	-0.0628965050	0.0000205453	0.4264935300
0.7378419600	-0.0009999500	-0.0631811100	0.0000102901	0.4279093400
0.7388737200	-0.0009999500	-0.0634226580	0.0000150491	0.4291699800
0.7393500200	-0.0009999500	-0.0635342670	0.0000079876	0.4297011500
0.7399196000	-0.0009999500	-0.0636677150	0.0000016628	0.4303363000
0.7407598500	-0.0009999500	-0.0638647530	-0.0000023234	0.4313116700
0.7415375100	-0.0009999500	-0.0640472170	-0.0000060725	0.4321463100
0.7421944700	-0.0009999500	-0.0642014670	-0.0000092050	0.4329357100
0.7427788400	-0.0009999500	-0.0643387290	-0.0000070248	0.4335894300
0.7433266600	-0.0009999500	-0.0644674820	-0.0000069171	0.4341544800
0.7438408100	-0.0009999500	-0.0645883830	-0.0000105616	0.4346329900
0.7438907600	-0.0009999500	-0.0646001250	-0.0000108422	0.4346896100
0.7443205700	-0.0009999500	-0.0647012290	-0.0000141469	0.4351593000
0.7445324100	-0.0009999500	-0.0647510740	-0.0000133135	0.4353765000
0.7449595900	-0.0009999500	-0.0648516340	-0.0000102502	0.4358693400
0.7455822800	-0.0009999500	-0.0649982840	-0.0000044750	0.4364223500
0.7456396200	-0.0009999500	-0.0650117840	-0.0000049382	0.4364731600
0.7458130700	-0.0009999500	-0.0650526430	0.0000031200	0.4366754000
0.7460951800	-0.0009999500	-0.0651191170	0.0000140287	0.4369990800
0.7464378500	-0.0009999500	-0.0651998590	0.0000619769	0.4373336700
0.7467177500	-0.0009999500	-0.0652658420	0.0001735409	0.4373677100
0.7469513400	-0.0009999500	-0.0653209090	0.0004001300	0.4358660900
0.7471460100	-0.0009999500	-0.0653668050	0.0006151585	0.4348203800
0.7469463300	-0.0009999500	-0.0653782040	0.0005188614	0.4356993100
0.7467067200	-0.0009999500	-0.0653918760	0.0002901885	0.4361977600
0.7464187100	-0.0009999500	-0.0654082970	0.0002209976	0.4360218600
0.7460444600	-0.0009999500	-0.0654296200	0.0002150758	0.4355683600
0.7457779600	-0.0009999500	-0.0654447820	0.0002234852	0.4351823900
0.7455345400	-0.0009999500	-0.0654586400	0.0002300820	0.4348193400
0.7454809500	-0.0009999500	-0.0654616880	0.0002319836	0.4347422400
0.7448865800	-0.0009999500	-0.0654954460	0.0002332977	0.4337855900
0.7446649700	-0.0009999500	-0.0655080150	0.0002337801	0.4334013200
0.7442039300	-0.0009999500	-0.0655341300	0.0002401394	0.4326279500
0.7438017700	-0.0009999500	-0.0655568760	0.0002480547	0.4320596200
0.7436482300	-0.0009999500	-0.0655655490	0.0002504691	0.4317990200
0.7433102700	-0.0009999500	-0.0655846300	0.0002423251	0.4311914700
0.7427687600	-0.0009999500	-0.0656151550	0.0002500266	0.4302841100
0.7421698600	-0.0009999500	-0.0656488610	0.0002529961	0.4292574800
0.7414947700	-0.0009999500	-0.0656867620	0.0002597996	0.4280712300
0.7407319500	-0.0009999500	-0.0657294910	0.0002684437	0.4267847200
0.7398662000	-0.0009999500	-0.0657778750	0.0002900640	0.4254298200
0.7389146100	-0.0009999500	-0.0658308940	0.0003043346	0.4238916600
0.7384635800	-0.0009999500	-0.0658559350	0.0003133458	0.4231943500
0.7377156000	-0.0009999500	-0.0658974720	0.0003289006	0.4220509800
0.7365900300	-0.0009999500	-0.0659597440	0.0003203582	0.4201746000
0.7352385500	-0.0009999500	-0.0660342050	0.0003365834	0.4181866300
0.7337603000	-0.0009999500	-0.0661152750	0.0003472292	0.4159323900
0.7321630700	-0.0009999500	-0.0662024240	0.0003624122	0.4136685400
0.7304588600	-0.0009999500	-0.0662949010	0.0003801479	0.4112966400
0.7286621300	-0.0009999500	-0.0663918480	0.0003951246	0.4088336200
0.7267869100	-0.0009999500	-0.0664924160	0.0004092884	0.4063817300
0.7248442200	-0.0009999500	-0.0665959490	0.0004271765	0.4039147500
0.7228341100	-0.0009999500	-0.0667023810	0.0004440964	0.4014148400
0.7207637400	-0.0009999500	-0.0668112640	0.0004567976	0.3988971400
0.7186388400	-0.0009999500	-0.0669222330	0.0004682216	0.3963762500
0.7164642200	-0.0009999500	-0.0670349820	0.0004837062	0.3939035500
0.7142432900	-0.0009999500	-0.0671492960	0.0005021406	0.3914296300
0.7119781400	-0.0009999500	-0.0672650040	0.0005178288	0.3889439700
0.7096702500	-0.0009999500	-0.0673819930	0.0005310419	0.3864852500
0.7073212300	-0.0009999500	-0.0675001370	0.0005446293	0.3840379400
0.7049337600	-0.0009999500	-0.0676192420	0.0005583888	0.3816312000
0.7025105400	-0.0009999500	-0.0677391510	0.0005713372	0.3792365200
0.7000528600	-0.0009999500	-0.0678597540	0.0005806971	0.3768410700
0.6975610300	-0.0009999500	-0.0679809900	0.0005881318	0.3744841800
0.6950340900	-0.0009999500	-0.0681028890	0.0006009443	0.3721805200
0.6924691200	-0.0009999500	-0.0682255250	0.0006177075	0.3698824300
0.6898594500	-0.0009999500	-0.0683491830	0.0006306496	0.3675615200
0.6871926200	-0.0009999500	-0.0684743900	0.0006401323	0.3652384300
0.6844478800	-0.0009999500	-0.0686020400	0.0006501020	0.3629029400
0.6815945500	-0.0009999500	-0.0687334310	0.0006610004	0.3605400300
0.6785980500	-0.0009999500	-0.0688699930	0.0006726807	0.3581026200
0.6754218900	-0.0009999500	-0.0690131630	0.0006852477	0.3555734800
0.6720267500	-0.0009999500	-0.0691644030	0.0006989956	0.3529285200
0.6683671500	-0.0009999500	-0.0693253650	0.0007145404	0.3501406300
0.6643803700	-0.0009999500	-0.0694982930	0.0007326976	0.3471753600
0.6599674200	-0.0009999500	-0.0696867780	0.0007545958	0.3439859700
0.6549822100	-0.0009999500	-0.0698960420	0.0007818281	0.3405127200
0.6492052100	-0.0009999500	-0.0701336940	0.0008152131	0.3366153800
0.6422627600	-0.0009999500	-0.0704124790	0.0008534211	0.3323454600
0.6352654100	-0.0009999500	-0.0706860200	0.0008937948	0.3280802400
0.6284862200	-0.0009999500	-0.0709439520	0.0009334249	0.3240532900
0.6218742700	-0.0009999500	-0.0711888890	0.0009698580	0.3202438700
0.6153745700	-0.0009999500	-0.0714233220	0.0010018236	0.3165984200
0.6089287400	-0.0009999500	-0.0716496410	0.0010292734	0.3130811800
0.6024917400	-0.0009999500	-0.0718695740	0.0010528938	0.3096545900
0.5960293400	-0.0009999500	-0.0720843000	0.0010737499	0.3062936700
0.5895202800	-0.0009999500	-0.0722944590	0.0010931342	0.3029897500
0.5829501700	-0.0009999500	-0.0725004080	0.0011123940	0.2997342600
0.5763068200	-0.0009999500	-0.0727023710	0.0011217964	0.2964844100
0.5695772800	-0.0009999500	-0.0729005410	0.0011319970	0.2932998800
0.5627446800	-0.0009999500	-0.0730951730	0.0011590854	0.2901373200
0.5557922700	-0.0009999500	-0.0732864510	0.0011830157	0.2869611100
0.5487078400	-0.0009999500	-0.0734743700	0.0011987864	0.2838260800
0.5414887700	-0.0009999500	-0.0736586000	0.0012057619	0.2806602100
0.5341487500	-0.0009999500	-0.0738384430	0.0012145658	0.2775565400
0.5267151600	-0.0009999500	-0.0740129050	0.0012421523	0.2744805500
0.5192170100	-0.0009999500	-0.0741810580	0.0012675938	0.2713900200
0.5116720800	-0.0009999500	-0.0743423400	0.0012841465	0.2683764100
0.5040807100	-0.0009999500	-0.0744965970	0.0013013947	0.2654081600
0.4964275700	-0.0009999500	-0.0746439470	0.0013209674	0.2624905700
0.4886894500	-0.0009999500	-0.0747845920	0.0013290319	0.2595811200
0.4808457500	-0.0009999500	-0.0749185680	0.0013275533	0.2567188400
0.4728908200	-0.0009999500	-0.0750455780	0.0013466939	0.2539416300
0.4648405900	-0.0009999500	-0.0751649890	0.0013813940	0.2511098700
0.4567296200	-0.0009999500	-0.0752759580	0.0014061695	0.2482511700
0.4486037800	-0.0009999500	-0.0753776730	0.0014238571	0.2454952600
0.4405099700	-0.0009999500	-0.0754695090	0.0014300896	0.2427616000
0.4324779500	-0.0009999500	-0.0755512040	0.0014380541	0.2401617500
0.4245114900	-0.0009999500	-0.0756228790	0.0014544213	0.2375997800
0.4165967400	-0.0009999500	-0.0756847630	0.0014687912	0.2350602700
0.4087123000	-0.0009999500	-0.0757370740	0.0014965580	0.2326319200
0.4008385500	-0.0009999500	-0.0757799070	0.0015217551	0.2302133600
0.3929646300	-0.0009999500	-0.0758132340	0.0015364269	0.2278897200
0.3850894600	-0.0009999500	-0.0758369270	0.0015522378	0.2256263600
0.3772146100	-0.0009999500	-0.0758508590	0.0015684270	0.2234169800
0.3693341900	-0.0009999500	-0.0758548900	0.0015847868	0.2212616800
0.3614305900	-0.0009999500	-0.0758488180	0.0016009833	0.2191641900
0.3534763800	-0.0009999500	-0.0758323370	0.0016176700	0.2171078500
0.3454417600	-0.0009999500	-0.0758049410	0.0016224148	0.2150286100
0.3373050100	-0.0009999500	-0.0757659970	0.0016265421	0.2130436200
0.3290645500	-0.0009999500	-0.0757148710	0.0016550521	0.2111343000
0.3207419500	-0.0009999500	-0.0756510650	0.0016814011	0.2091826200
0.3123768000	-0.0009999500	-0.0755743610	0.0016955160	0.2073175900
0.3040194500	-0.0009999500	-0.0754848870	0.0016976343	0.2054997400
0.2957090400	-0.0009999500	-0.0753829260	0.0017011726	0.2038226300
0.2874583000	-0.0009999500	-0.0752686040	0.0017299662	0.2022346600
0.2792537800	-0.0009999500	-0.0751416830	0.0017551201	0.2006422700
0.2710678000	-0.0009999500	-0.0750016050	0.0017683572	0.1991717500
0.2628790700	-0.0009999500	-0.0748477500	0.0017841675	0.1978088300
0.2546856100	-0.0009999500	-0.0746797170	0.0017849929	0.1964229600
0.2465146200	-0.0009999500	-0.0744977740	0.0017855999	0.1951738700
0.2384106200	-0.0009999500	-0.0743028070	0.0018153018	0.1940946100
0.2304104000	-0.0009999500	-0.0740958230	0.0018271387	0.1928937400
0.2225281700	-0.0009999500	-0.0738774170	0.0018253201	0.1919734800
0.2147432400	-0.0009999500	-0.0736472610	0.0018346535	0.1910507800
0.2070556000	-0.0009999500	-0.0734055410	0.0018304538	0.1901084500
0.1993801400	-0.0009999500	-0.0731495470	0.0018416719	0.1894860000
0.1916299300	-0.0009999500	-0.0728757900	0.0018758961	0.1887901300
0.1837428800	-0.0009999500	-0.0725810530	0.0018962958	0.1881260100
0.1756954000	-0.0009999500	-0.0722630840	0.0019044193	0.1875830300
0.1674965300	-0.0009999500	-0.0719207450	0.0019153055	0.1871603000
0.1591712200	-0.0009999500	-0.0715535660	0.0019280140	0.1868137000
0.1507507300	-0.0009999500	-0.0711615530	0.0019269497	0.1864674500
0.1422631000	-0.0009999500	-0.0707447900	0.0019295862	0.1864928800
0.1337314700	-0.0009999500	-0.0703033060	0.0019625851	0.1866262700
0.1251854700	-0.0009999500	-0.0698376670	0.0019765241	0.1867190500
0.1166624900	-0.0009999500	-0.0693492000	0.0019642313	0.1870218400
0.1082074700	-0.0009999500	-0.0688401240	0.0019832107	0.1874856500
0.0998676490	-0.0009999500	-0.0683132630	0.0020261366	0.1880326300
0.0916786420	-0.0009999500	-0.0677712490	0.0020533317	0.1886564200
0.0836630390	-0.0009999500	-0.0672162700	0.0020685707	0.1894316400
0.0758288650	-0.0009999500	-0.0666497350	0.0020862993	0.1902995100
0.0681683270	-0.0009999500	-0.0660719280	0.0021058486	0.1913138000
0.0606634210	-0.0009999500	-0.0654822740	0.0021269066	0.1924516900
0.0532937570	-0.0009999500	-0.0648798350	0.0021300529	0.1936182500
0.0460443680	-0.0009999500	-0.0642638580	0.0021326487	0.1949539600
0.0389131460	-0.0009999500	-0.0636345600	0.0021691784	0.1964654200
0.0319123790	-0.0009999500	-0.0629935260	0.0022034273	0.1979117200
0.0250616280	-0.0009999500	-0.0623432360	0.0022219507	0.1994914600
0.0183798130	-0.0009999500	-0.0616863780	0.0022440042	0.2012871400
0.0118826610	-0.0009999500	-0.0610255560	0.0022472511	0.2030645000
0.0055768774	-0.0009999500	-0.0603626930	0.0022508221	0.2050485900
-0.0005443011	-0.0009999500	-0.0596983660	0.0022916757	0.2070750000
-0.0064988718	-0.0009999500	-0.0590318030	0.0023103419	0.2089301300
-0.0123192000	-0.0009999500	-0.0583602790	0.0023104169	0.2112173100
-0.0180419440	-0.0009999500	-0.0576801370	0.0023493535	0.2135705400
-0.0236947200	-0.0009999500	-0.0569883920	0.0023652991	0.2156763200
-0.0292967090	-0.0009999500	-0.0562827550	0.0023682917	0.2181723100
-0.0348538830	-0.0009999500	-0.0555623700	0.0024123431	0.2209502800
-0.0403589790	-0.0009999500	-0.0548280250	0.0024489120	0.2235990800
-0.0457982230	-0.0009999500	-0.0540815670	0.0024683540	0.2263541700
-0.0511575150	-0.0009999500	-0.0533251240	0.0024910770	0.2293483300
-0.0564287340	-0.0009999500	-0.0525601990	0.0025147022	0.2324769600
-0.0616159480	-0.0009999500	-0.0517865080	0.0025388065	0.2357604200
-0.0667349770	-0.0009999500	-0.0510018880	0.0025373091	0.2389275600
-0.0718055670	-0.0009999500	-0.0502033200	0.0025396784	0.2424325600
-0.0768452360	-0.0009999500	-0.0493878570	0.0025831090	0.2464558200
-0.0818668530	-0.0009999500	-0.0485530050	0.0026176367	0.2501558400
-0.0868795890	-0.0009999500	-0.0476965460	0.0026139692	0.2538390500
-0.0918912370	-0.0009999500	-0.0468163160	0.0026153697	0.2584040500
-0.0969100590	-0.0009999500	-0.0459099000	0.0026527928	0.2630479900
-0.1019455100	-0.0009999500	-0.0449744800	0.0026888721	0.2676426500
-0.1070088300	-0.0009999500	-0.0440065260	0.0027076014	0.2728282800
-0.1121149400	-0.0009999500	-0.0430012940	0.0027239955	0.2783650200
-0.1172852800	-0.0009999500	-0.0419522640	0.0027401660	0.2843633000
-0.1225502900	-0.0009999500	-0.0408503340	0.0027557024	0.2908885800
-0.1279503600	-0.0009999500	-0.0396830700	0.0027436858	0.2978712900
-0.1335367600	-0.0009999500	-0.0384336450	0.0027352000	0.3059474500
-0.1393646400	-0.0009999500	-0.0370820050	0.0027721234	0.3151700800
-0.1455147600	-0.0009999500	-0.0355989000	0.0028002211	0.3252222500
-0.1517265700	-0.0009999500	-0.0340372770	0.0028002027	0.3363253500
-0.1574147200	-0.0009999500	-0.0325465350	0.0027933759	0.3476698100
-0.1626929300	-0.0009999500	-0.0311073200	0.0027908304	0.3591792000
-0.1676515000	-0.0009999500	-0.0297024190	0.0027900937	0.3711941800
-0.1723669500	-0.0009999500	-0.0283147510	0.0027532044	0.3834610900
-0.1769004000	-0.0009999500	-0.0269293490	0.0027157820	0.3965134600
-0.1812997200	-0.0009999500	-0.0255331940	0.0027246059	0.4102993900
-0.1856008200	-0.0009999500	-0.0241144060	0.0027219646	0.4249524200
-0.1898269200	-0.0009999500	-0.0226634290	0.0026877179	0.4407832900
-0.1939939600	-0.0009999500	-0.0211723800	0.0026513930	0.4578883900
-0.1981106700	-0.0009999500	-0.0196347780	0.0026118578	0.4767157400
-0.2021741300	-0.0009999500	-0.0180463010	0.0025310309	0.4972157500
-0.2061695200	-0.0009999500	-0.0164074380	0.0024429457	0.5195987200
-0.2100702100	-0.0009999500	-0.0147250320	0.0023945791	0.5438628200
-0.2138443400	-0.0009999500	-0.0130080130	0.0023300271	0.5702611800
-0.2174613300	-0.0009999500	-0.0112667230	0.0022350451	0.5988118600
-0.2208973600	-0.0009999500	-0.0095126294	0.0021422110	0.6293622300
-0.2241374700	-0.0009999500	-0.0077531706	0.0020272554	0.6620614500
-0.2271789800	-0.0009999500	-0.0059889141	0.0019104924	0.6967648900
-0.2300332300	-0.0009999500	-0.0042149071	0.0018355782	0.7332060300
-0.2327084500	-0.0009999500	-0.0024254001	0.0017555353	0.7715122700
-0.2352057400	-0.0009999500	-0.0006138800	0.0016185111	0.8107596000
-0.2375221000	-0.0009999500	0.0012201592	0.0014100319	0.8500717300
-0.2396056800	-0.0009999500	0.0030328815	0.0011884021	0.8882364000
-0.2416306000	-0.0009999500	0.0050000739	0.0009547060	0.9254812600
-0.2432895700	-0.0009999500	0.0068226838	0.0006790546	0.9573351700
-0.2447747700	-0.0009999500	0.0086880270	0.0003574205	0.9796060300
-0.2460268000	-0.0009999500	0.0105304890	0.0000224245	0.9887890800
-0.2470641700	-0.0009999500	0.0123720290	-0.0003447855	0.9816244800
-0.2478788300	-0.0009999500	0.0141851600	-0.0005960123	0.9549186800
-0.2484661900	-0.0009999500	0.0159177580	-0.0005853304	0.9082406800
-0.2488259200	-0.0009999500	0.0174389200	-0.0004874194	0.8459363600
-0.2490280700	-0.0009999500	0.0188524310	-0.0004114320	0.7798703900
-0.2491065700	-0.0009999500	0.0203516240	-0.0002034638	0.6997538800
-0.2490486800	-0.0009999500	0.0217889360	0.0003546443	0.5930532200
-0.2488582000	-0.0009999500	0.0232026630	0.0011681746	0.4740485000
-0.2485141200	-0.0009999500	0.0246908530	0.0019130418	0.3669261300
-0.2480721900	-0.0009999500	0.0260359910	0.0023889469	0.2628342800
-0.2474783700	-0.0009999500	0.0274199230	0.0030652156	0.1565712700
-0.2466297000	-0.0009999500	0.0289862830	0.0040219580	0.0427620970
-0.2455425100	-0.0009999500	0.0306083040	0.0049535894	-0.0604730100
-0.2442345200	-0.0009999500	0.0322215150	0.0056342159	-0.1504199700
-0.2427340000	-0.0009999500	0.0337863270	0.0059646385	-0.2233659000
-0.2410058700	-0.0009999500	0.0353393850	0.0061018199	-0.2785682400
-0.2391185300	-0.0009999500	0.0368229640	0.0061393158	-0.3303131200
-0.2368168500	-0.0009999500	0.0384118220	0.0062474088	-0.3649790600
-0.2344425200	-0.0009999500	0.0398618540	0.0061977958	-0.3870126900
-0.2318887600	-0.0009999500	0.0412610580	0.0063067119	-0.4062151600
-0.2291631800	-0.0009999500	0.0426063500	0.0062032273	-0.4176254900
-0.2262695700	-0.0009999500	0.0438997630	0.0060196918	-0.4260067300
-0.2232056400	-0.0009999500	0.0451476980	0.0059985310	-0.4312394000
-0.2199628700	-0.0009999500	0.0463531870	0.0059922251	-0.4332677100
-0.2165327100	-0.0009999500	0.0475188790	0.0058976129	-0.4337114700
-0.2129181200	-0.0009999500	0.0486453730	0.0057972140	-0.4318568100
-0.2091376500	-0.0009999500	0.0497267320	0.0056987264	-0.4287329600
-0.2052149800	-0.0009999500	0.0507568230	0.0055379683	-0.4247133400
-0.2011736500	-0.0009999500	0.0517331320	0.0053665204	-0.4202476700
-0.1970299600	-0.0009999500	0.0526552650	0.0052992279	-0.4153011100
-0.1927880300	-0.0009999500	0.0535246060	0.0052381753	-0.4092681100
-0.1884418600	-0.0009999500	0.0543451680	0.0051187820	-0.4036549300
-0.1839850200	-0.0009999500	0.0551206730	0.0050087871	-0.3974362300
-0.1794187000	-0.0009999500	0.0558517240	0.0049124725	-0.3912137200
-0.1747530400	-0.0009999500	0.0565378180	0.0047759439	-0.3851553200
-0.1699976500	-0.0009999500	0.0571794730	0.0046364423	-0.3791587700
-0.1651469500	-0.0009999500	0.0577787610	0.0045828726	-0.3730269100
-0.1601671900	-0.0009999500	0.0583399270	0.0045310609	-0.3664185100
-0.1549900800	-0.0009999500	0.0588695150	0.0044406972	-0.3600133400
-0.1495157200	-0.0009999500	0.0593743850	0.0043308516	-0.3536573600
-0.1436138300	-0.0009999500	0.0598593280	0.0042134188	-0.3462324400
-0.1371261200	-0.0009999500	0.0603261960	0.0041492169	-0.3383440100
-0.1306419400	-0.0009999500	0.0607286730	0.0040879403	-0.3313693400
-0.1246485300	-0.0009999500	0.0610473300	0.0040057965	-0.3247476500
-0.1190091800	-0.0009999500	0.0613029860	0.0039395348	-0.3186312000
-0.1136327500	-0.0009999500	0.0615090500	0.0038533714	-0.3127133500
-0.1084415200	-0.0009999500	0.0616749150	0.0037637803	-0.3075303700
-0.1033697300	-0.0009999500	0.0618068460	0.0037431999	-0.3022494900
-0.0983614100	-0.0009999500	0.0619090830	0.0037310496	-0.2967887200
-0.0933688430	-0.0009999500	0.0619844090	0.0036521472	-0.2918099200
-0.0883518760	-0.0009999500	0.0620344650	0.0035640427	-0.2868503900
-0.0832793270	-0.0009999500	0.0620598900	0.0035424129	-0.2817332100
-0.0781319440	-0.0009999500	0.0620606690	0.0035328416	-0.2764043500
-0.0729046990	-0.0009999500	0.0620365810	0.0034898161	-0.2710819200
-0.0676052640	-0.0009999500	0.0619875120	0.0034198785	-0.2656526900
-0.0622484090	-0.0009999500	0.0619136060	0.0033401730	-0.2604243500
-0.0568481760	-0.0009999500	0.0618151390	0.0033205733	-0.2551063000
-0.0514096580	-0.0009999500	0.0616924350	0.0033072460	-0.2496146700
-0.0459222090	-0.0009999500	0.0615454730	0.0032589955	-0.2442308200
-0.0403647610	-0.0009999500	0.0613737400	0.0032117859	-0.2387936000
-0.0347194560	-0.0009999500	0.0611764380	0.0031654778	-0.2332768400
-0.0289793410	-0.0009999500	0.0609528940	0.0031195156	-0.2276857500
-0.0231539720	-0.0009999500	0.0607031140	0.0030738133	-0.2220298600
-0.0172656230	-0.0009999500	0.0604279150	0.0030300385	-0.2162891200
-0.0113368320	-0.0009999500	0.0601284800	0.0029861257	-0.2105353300
-0.0053852657	-0.0009999500	0.0598059860	0.0029420863	-0.2047980000
0.0005828097	-0.0009999500	0.0594611690	0.0028976124	-0.1990391600
0.0065768580	-0.0009999500	0.0590938780	0.0028534908	-0.1932350700
0.0126244900	-0.0009999500	0.0587026480	0.0028119269	-0.1874163700
0.0187638140	-0.0009999500	0.0582848530	0.0027728652	-0.1814591900
0.0250394940	-0.0009999500	0.0578368600	0.0027158339	-0.1753861900
0.0314950050	-0.0009999500	0.0573545840	0.0026435926	-0.1691825100
0.0381594190	-0.0009999500	0.0568345450	0.0025967732	-0.1627309600
0.0450435910	-0.0009999500	0.0562744330	0.0025713166	-0.1561535400
0.0521351580	-0.0009999500	0.0556737590	0.0025478313	-0.1493235700
0.0594029720	-0.0009999500	0.0550339330	0.0025112518	-0.1423612200
0.0668035520	-0.0009999500	0.0543579940	0.0024630935	-0.1353293200
0.0742927640	-0.0009999500	0.0536496340	0.0024182825	-0.1282022700
0.0818375570	-0.0009999500	0.0529119820	0.0023579383	-0.1209980400
0.0894232690	-0.0009999500	0.0521467100	0.0022932426	-0.1138368300
0.0970548610	-0.0009999500	0.0513536300	0.0022684394	-0.1065964300
0.1047507200	-0.0009999500	0.0505310260	0.0022317974	-0.0992389770
0.1125318200	-0.0009999500	0.0496766270	0.0021705531	-0.0920243560
0.1204122300	-0.0009999500	0.0487887450	0.0021444954	-0.0846270250
0.1283959300	-0.0009999500	0.0478667320	0.0021200258	-0.0771090390
0.1364791100	-0.0009999500	0.0469108450	0.0020798388	-0.0696080700
0.1446531100	-0.0009999500	0.0459219370	0.0020269716	-0.0619419180
0.1529063100	-0.0009999500	0.0449013670	0.0019727821	-0.0542913380
0.1612245600	-0.0009999500	0.0438509660	0.0019503934	-0.0466169160
0.1695874800	-0.0009999500	0.0427734930	0.0019283866	-0.0389074870
0.1779670400	-0.0009999500	0.0416729150	0.0018905802	-0.0312910080
0.1863363400	-0.0009999500	0.0405533280	0.0018555364	-0.0236762670
0.1946768900	-0.0009999500	0.0394179190	0.0018216974	-0.0161270440
0.2029816400	-0.0009999500	0.0382683910	0.0017885141	-0.0086726388
0.2112532400	-0.0009999500	0.0371050980	0.0017568428	-0.0012771146
0.2194973700	-0.0009999500	0.0359279360	0.0017268144	0.0060394784
0.2277164500	-0.0009999500	0.0347371810	0.0016978829	0.0132534820
0.2359064800	-0.0009999500	0.0335340020	0.0016703865	0.0203906730
0.2440675500	-0.0009999500	0.0323189610	0.0016323387	0.0274918900
0.2521899000	-0.0009999500	0.0310941100	0.0015940120	0.0344508810
0.2602674700	-0.0009999500	0.0298609710	0.0015812250	0.0413471830
0.2683017800	-0.0009999500	0.0286198840	0.0015709179	0.0482389820
0.2763012600	-0.0009999500	0.0273700930	0.0015377043	0.0550359040
0.2842785400	-0.0009999500	0.0261100880	0.0015029363	0.0617410020
0.2922448200	-0.0009999500	0.0248384810	0.0014926738	0.0684045780
0.3002064500	-0.0009999500	0.0235545670	0.0014719609	0.0750464720
0.3081671300	-0.0009999500	0.0222580360	0.0014349329	0.0815756840
0.3161326600	-0.0009999500	0.0209481980	0.0014212041	0.0880633440
0.3241167700	-0.0009999500	0.0196229830	0.0014091707	0.0945405740
0.3321402100	-0.0009999500	0.0182790440	0.0013755180	0.1009854900
0.3402227800	-0.0009999500	0.0169130730	0.0013404676	0.1074091300
0.3483744600	-0.0009999500	0.0155233280	0.0013266752	0.1138343400
0.3565852000	-0.0009999500	0.0141114390	0.0013049457	0.1202766200
0.3648264700	-0.0009999500	0.0126823350	0.0012695984	0.1266731200
0.3730633000	-0.0009999500	0.0112422090	0.0012458020	0.1330369100
0.3812642700	-0.0009999500	0.0097968411	0.0012214748	0.1393083300
0.3894124300	-0.0009999500	0.0083495667	0.0012050257	0.1454798300
0.3975068600	-0.0009999500	0.0069009322	0.0011899239	0.1515873700
0.4055533700	-0.0009999500	0.0054502450	0.0011656372	0.1576055300
0.4135571400	-0.0009999500	0.0039968849	0.0011427489	0.1635560700
0.4215185300	-0.0009999500	0.0025410696	0.0011204633	0.1694374800
0.4294347800	-0.0009999500	0.0010835761	0.0010990591	0.1752688400
0.4373039000	-0.0009999500	-0.0003749419	0.0010786034	0.1810357300
0.4451272800	-0.0009999500	-0.0018344951	0.0010596689	0.1867337700
0.4529101600	-0.0009999500	-0.0032958230	0.0010340591	0.1923834700
0.4606580400	-0.0009999500	-0.0047597541	0.0010071117	0.1979913100
0.4683730300	-0.0009999500	-0.0062264968	0.0009953127	0.2035520700
0.4760527300	-0.0009999500	-0.0076954309	0.0009835875	0.2090699700
0.4836924400	-0.0009999500	-0.0091654882	0.0009638671	0.2145298900
0.4912891700	-0.0009999500	-0.0106359040	0.0009453302	0.2199467600
0.4988451000	-0.0009999500	-0.0121069290	0.0009269175	0.2253382700
0.5063679200	-0.0009999500	-0.0135799260	0.0009088570	0.2307045900
0.5138667800	-0.0009999500	-0.0150565640	0.0008915797	0.2360634200
1 2 
2 3 
3 4 
4 5 
5 6 
6 7 
7 8 
8 9 
9 10 
10 11 
11 12 
12 13 
13 14 
14 15 
15 16 
16 17 
17 18 
18 19 
19 20 
20 21 
21 22 
22 23 
23 24 
24 25 
25 26 
26 27 
27 28 
28 29 
29 30 
30 31 
31 32 
32 33 
33 34 
34 35 
35 36 
36 37 
37 38 
38 39 
39 40 
40 41 
41 42 
42 43 
43 44 
44 45 
45 46 
46 47 
47 48 
48 49 
49 50 
50 51 
51 52 
52 53 
53 54 
54 55 
55 56 
56 57 
57 58 
58 59 
59 60 
60 61 
61 62 
62 63 
63 64 
64 65 
65 66 
66 67 
67 68 
68 69 
69 70 
70 71 
71 72 
72 73 
73 74 
74 75 
75 76 
76 77 
77 78 
78 79 
79 80 
80 81 
81 82 
82 83 
83 84 
84 85 
85 86 
86 87 
87 88 
88 89 
89 90 
90 91 
91 92 
92 93 
93 94 
94 95 
95 96 
96 97 
97 98 
98 99 
99 100 
100 101 
101 102 
102 103 
103 104 
104 105 
105 106 
106 107 
107 108 
108 109 
109 110 
110 111 
111 112 
112 113 
113 114 
114 115 
115 116 
116 117 
117 118 
118 119 
119 120 
120 121 
121 122 
122 123 
123 124 
124 125 
125 126 
126 127 
127 128 
128 129 
129 130 
130 131 
131 132 
132 133 
133 134 
134 135 
135 136 
136 137 
137 138 
138 139 
139 140 
140 141 
141 142 
142 143 
143 144 
144 145 
145 146 
146 147 
147 148 
148 149 
149 150 
150 151 
151 152 
152 153 
153 154 
154 155 
155 156 
156 157 
157 158 
158 159 
159 160 
160 161 
161 162 
162 163 
163 164 
164 165 
165 166 
166 167 
167 168 
168 169 
169 170 
170 171 
171 172 
172 173 
173 174 
174 175 
175 176 
176 177 
177 178 
178 179 
179 180 
180 181 
181 182 
182 183 
183 184 
184 185 
185 186 
186 187 
187 188 
188 189 
189 190 
190 191 
191 192 
192 193 
193 194 
194 195 
195 196 
196 197 
197 198 
198 199 
199 200 
200 201 
201 202 
202 203 
203 204 
204 205 
205 206 
206 207 
207 208 
208 209 
209 210 
210 211 
211 212 
212 213 
213 214 
214 215 
215 216 
216 217 
217 218 
218 219 
219 220 
220 221 
221 222 
222 223 
223 224 
224 225 
225 226 
226 227 
227 228 
228 229 
229 230 
230 231 
231 232 
232 233 
233 234 
234 235 
235 236 
236 237 
237 238 
238 239 
239 240 
240 241 
241 242 
242 243 
243 244 
244 245 
245 246 
246 247 
247 248 
248 249 
249 250 
250 251 
251 252 
252 253 
253 254 
254 255 
255 256 
256 257 
257 258 
258 259 
259 260 
260 261 
261 262 
262 263 
263 264 
264 265 
265 266 
266 267 
267 268 
268 269 
269 270 
270 271 
271 272 
272 273 
273 274 
274 275 
275 276 
276 277 
277 278 
278 279 
279 280 
280 281 
281 282 
282 283 
283 284 
284 285 
285 286 
286 287 
287 288 
288 289 
289 290 
290 291 
291 292 
292 293 
293 294 
294 295 
295 296 
296 297 
297 298 
298 299 
299 300 
300 301 
301 302 
302 303 
303 304 
304 305 
305 306 
306 307 