VARIABLES = Nnode C<sub>D</sub>  CDp  CDv  C<sub>L</sub>  CLp  CLf  Pitch 
ZONE T = "WOLF, HELDENMESH S3 grids, SA-QCR2000-R_Crot_1.0"
78511    2.423347e-02 1.508746e-02 9.146010e-03 2.328180e-01 2.329275e-01 -1.094271e-04 7.644850e-03
440973   2.242574e-02 1.210273e-02 1.032300e-02 2.310224e-01 2.312560e-01 -2.336112e-04 8.810531e-03
3494776  2.224578e-02 1.106509e-02 1.118069e-02 2.262153e-01 2.264624e-01 -2.471199e-04 1.028108e-02
27326131 2.232624e-02 1.095505e-02 1.137120e-02 2.260417e-01 2.262926e-01 -2.508764e-04 1.056501e-02
