# Iterations  ResRho  ResRhoU  ResRhoV  ResRhoW  ResRhoE  ResTrb
VARIABLES=iterations ResRho  ResRhoU  ResRhoV  ResRhoW  ResRhoE  ResTrb
ZONE T="WOLF HM2"
801 7.900167e-04 2.054968e-03 2.330645e-03 3.998198e-03 4.937366e-02 5.729061e-09
802 7.124132e-04 2.013774e-03 2.336112e-03 4.045913e-03 4.445828e-02 5.496925e-09
803 6.776672e-04 1.995117e-03 2.336331e-03 4.061472e-03 4.225743e-02 5.390472e-09
804 6.462526e-04 1.977685e-03 2.333540e-03 4.069095e-03 4.026792e-02 5.289987e-09
805 6.186009e-04 1.961431e-03 2.327047e-03 4.067309e-03 3.851747e-02 5.195098e-09
806 5.950715e-04 1.946236e-03 2.316282e-03 4.055131e-03 3.702930e-02 5.105579e-09
807 5.759484e-04 1.932057e-03 2.300866e-03 4.031748e-03 3.582185e-02 5.021187e-09
808 5.613705e-04 1.918829e-03 2.280480e-03 3.996702e-03 3.490427e-02 4.941597e-09
809 5.512903e-04 1.906488e-03 2.255054e-03 3.949657e-03 3.427365e-02 4.866515e-09
810 5.454655e-04 1.895017e-03 2.224634e-03 3.890798e-03 3.391463e-02 4.795654e-09
811 5.435079e-04 1.884354e-03 2.189405e-03 3.820582e-03 3.380233e-02 4.728593e-09
812 5.448648e-04 1.874400e-03 2.149625e-03 3.739676e-03 3.390120e-02 4.665139e-09
813 5.489007e-04 1.865066e-03 2.105771e-03 3.648991e-03 3.417041e-02 4.605165e-09
814 5.549328e-04 1.856245e-03 2.058454e-03 3.549573e-03 3.456611e-02 4.548443e-09
815 5.622949e-04 1.847815e-03 2.008252e-03 3.443140e-03 3.504563e-02 4.494860e-09
816 5.703488e-04 1.839646e-03 1.955929e-03 3.331248e-03 3.556826e-02 4.444345e-09
817 5.785409e-04 1.831683e-03 1.902285e-03 3.215642e-03 3.609876e-02 4.396877e-09
818 5.863799e-04 1.823883e-03 1.848197e-03 3.098246e-03 3.660597e-02 4.352266e-09
819 5.934428e-04 1.816172e-03 1.794542e-03 2.981266e-03 3.706303e-02 4.310476e-09
820 5.994156e-04 1.808488e-03 1.742184e-03 2.867021e-03 3.745011e-02 4.271563e-09
821 6.040671e-04 1.800699e-03 1.691978e-03 2.757514e-03 3.775262e-02 4.235448e-09
822 6.072178e-04 1.792783e-03 1.644644e-03 2.654887e-03 3.795925e-02 4.202077e-09
823 6.088140e-04 1.784721e-03 1.600834e-03 2.560661e-03 3.806665e-02 4.171403e-09
824 6.088323e-04 1.776544e-03 1.561142e-03 2.476372e-03 3.807352e-02 4.143252e-09
825 6.073709e-04 1.768239e-03 1.526029e-03 2.402787e-03 3.798613e-02 4.117661e-09
826 6.044795e-04 1.759692e-03 1.495707e-03 2.340483e-03 3.780755e-02 4.094560e-09
827 6.003127e-04 1.750925e-03 1.470106e-03 2.289214e-03 3.754767e-02 4.073896e-09
828 5.950256e-04 1.741945e-03 1.448976e-03 2.248129e-03 3.721631e-02 4.055547e-09
829 5.888135e-04 1.732834e-03 1.432068e-03 2.216075e-03 3.682593e-02 4.039417e-09
830 5.818628e-04 1.723632e-03 1.418856e-03 2.191580e-03 3.638837e-02 4.025495e-09
831 5.743948e-04 1.714380e-03 1.408566e-03 2.172880e-03 3.591764e-02 4.013707e-09
832 5.666043e-04 1.705049e-03 1.400484e-03 2.158099e-03 3.542605e-02 4.003988e-09
833 5.586942e-04 1.695724e-03 1.393951e-03 2.145528e-03 3.492652e-02 3.996268e-09
834 5.507971e-04 1.686497e-03 1.388145e-03 2.133670e-03 3.442751e-02 3.990418e-09
835 5.430693e-04 1.677441e-03 1.382504e-03 2.121366e-03 3.393904e-02 3.986225e-09
836 5.356262e-04 1.668540e-03 1.376572e-03 2.107686e-03 3.346845e-02 3.983685e-09
837 5.284716e-04 1.659808e-03 1.369818e-03 2.092096e-03 3.301597e-02 3.982642e-09
838 5.216128e-04 1.651311e-03 1.361909e-03 2.074340e-03 3.258214e-02 3.983012e-09
839 5.150977e-04 1.643096e-03 1.352688e-03 2.054549e-03 3.217009e-02 3.984662e-09
840 5.089044e-04 1.635146e-03 1.342050e-03 2.032925e-03 3.177839e-02 3.987498e-09
841 5.029228e-04 1.627477e-03 1.329962e-03 2.009918e-03 3.140014e-02 3.991412e-09
842 4.971331e-04 1.619979e-03 1.316545e-03 1.986365e-03 3.103399e-02 3.996307e-09
843 4.914762e-04 1.612722e-03 1.301938e-03 1.962810e-03 3.067627e-02 4.002097e-09
844 4.858968e-04 1.605691e-03 1.286355e-03 1.939834e-03 3.032349e-02 4.008771e-09
845 4.803659e-04 1.598888e-03 1.270048e-03 1.918175e-03 2.997382e-02 4.016274e-09
846 4.748672e-04 1.592253e-03 1.253289e-03 1.898168e-03 2.962620e-02 4.024603e-09
847 4.694313e-04 1.585788e-03 1.236438e-03 1.879948e-03 2.928259e-02 4.033728e-09
848 4.640858e-04 1.579472e-03 1.219787e-03 1.863466e-03 2.894471e-02 4.043529e-09
849 4.588587e-04 1.573229e-03 1.203563e-03 1.848551e-03 2.861429e-02 4.053951e-09
850 4.538026e-04 1.567082e-03 1.187903e-03 1.834687e-03 2.829465e-02 4.065005e-09
851 4.489981e-04 1.561060e-03 1.172982e-03 1.821378e-03 2.799089e-02 4.076653e-09
852 4.445033e-04 1.555150e-03 1.158853e-03 1.808042e-03 2.770669e-02 4.088901e-09
853 4.403654e-04 1.549364e-03 1.145562e-03 1.794163e-03 2.744504e-02 4.101763e-09
854 4.366163e-04 1.543675e-03 1.133124e-03 1.779222e-03 2.720788e-02 4.115242e-09
855 4.332813e-04 1.538114e-03 1.121517e-03 1.762760e-03 2.699685e-02 4.129253e-09
856 4.303679e-04 1.532687e-03 1.110695e-03 1.744400e-03 2.681242e-02 4.143796e-09
857 4.278418e-04 1.527453e-03 1.100534e-03 1.724064e-03 2.665241e-02 4.158842e-09
858 4.256633e-04 1.522453e-03 1.090932e-03 1.701804e-03 2.651428e-02 4.174392e-09
859 4.237854e-04 1.517664e-03 1.081764e-03 1.677731e-03 2.639504e-02 4.190327e-09
860 4.221499e-04 1.513099e-03 1.072938e-03 1.652070e-03 2.629098e-02 4.206780e-09
861 4.206876e-04 1.508760e-03 1.064336e-03 1.625195e-03 2.619772e-02 4.223784e-09
862 4.193382e-04 1.504654e-03 1.055897e-03 1.597568e-03 2.611146e-02 4.241358e-09
863 4.180443e-04 1.500760e-03 1.047567e-03 1.569629e-03 2.602860e-02 4.259491e-09
864 4.167477e-04 1.497075e-03 1.039325e-03 1.541848e-03 2.594546e-02 4.278239e-09
865 4.154118e-04 1.493590e-03 1.031153e-03 1.514625e-03 2.585980e-02 4.297681e-09
866 4.140159e-04 1.490308e-03 1.023056e-03 1.488320e-03 2.577036e-02 4.317812e-09
867 4.125379e-04 1.487225e-03 1.015036e-03 1.463229e-03 2.567578e-02 4.338734e-09
868 4.109677e-04 1.484355e-03 1.007102e-03 1.439551e-03 2.557546e-02 4.360485e-09
869 4.093094e-04 1.481704e-03 9.992811e-04 1.417412e-03 2.546971e-02 4.383223e-09
870 4.075709e-04 1.479280e-03 9.916026e-04 1.396839e-03 2.535909e-02 4.407046e-09
871 4.057621e-04 1.477110e-03 9.840799e-04 1.377846e-03 2.524431e-02 4.431977e-09
872 4.038928e-04 1.475207e-03 9.767311e-04 1.360391e-03 2.512602e-02 4.458191e-09
873 4.019750e-04 1.473596e-03 9.695637e-04 1.344375e-03 2.500505e-02 4.485802e-09
874 4.000207e-04 1.472292e-03 9.625686e-04 1.329700e-03 2.488222e-02 4.514934e-09
875 3.980427e-04 1.471317e-03 9.557232e-04 1.316235e-03 2.475835e-02 4.545619e-09
876 3.960535e-04 1.470685e-03 9.489994e-04 1.303850e-03 2.463426e-02 4.578035e-09
877 3.940570e-04 1.470413e-03 9.423545e-04 1.292402e-03 2.451023e-02 4.612213e-09
878 3.920625e-04 1.470505e-03 9.357572e-04 1.281759e-03 2.438682e-02 4.648062e-09
879 3.900845e-04 1.470963e-03 9.291860e-04 1.271791e-03 2.426495e-02 4.685559e-09
880 3.881326e-04 1.471781e-03 9.226213e-04 1.262366e-03 2.414519e-02 4.724568e-09
881 3.862135e-04 1.472938e-03 9.160308e-04 1.253370e-03 2.402794e-02 4.765219e-09
882 3.843328e-04 1.474404e-03 9.094031e-04 1.244714e-03 2.391351e-02 4.807436e-09
883 3.825016e-04 1.476142e-03 9.027452e-04 1.236316e-03 2.380251e-02 4.851013e-09
884 3.807189e-04 1.478114e-03 8.960946e-04 1.228118e-03 2.369482e-02 4.896006e-09
885 3.789877e-04 1.480271e-03 8.894935e-04 1.220098e-03 2.359057e-02 4.942385e-09
886 3.773057e-04 1.482568e-03 8.829759e-04 1.212251e-03 2.348953e-02 4.990026e-09
887 3.756656e-04 1.484946e-03 8.765852e-04 1.204582e-03 2.339117e-02 5.038942e-09
888 3.740628e-04 1.487355e-03 8.704002e-04 1.197103e-03 2.329510e-02 5.088922e-09
889 3.724895e-04 1.489740e-03 8.645058e-04 1.189843e-03 2.320078e-02 5.139895e-09
890 3.709400e-04 1.492055e-03 8.589874e-04 1.182848e-03 2.310781e-02 5.191893e-09
891 3.694114e-04 1.494253e-03 8.539308e-04 1.176154e-03 2.301594e-02 5.244868e-09
892 3.678971e-04 1.496296e-03 8.493982e-04 1.169785e-03 2.292473e-02 5.298756e-09
893 3.663900e-04 1.498155e-03 8.454385e-04 1.163764e-03 2.283369e-02 5.353329e-09
894 3.648895e-04 1.499807e-03 8.420596e-04 1.158107e-03 2.274279e-02 5.408716e-09
895 3.633935e-04 1.501233e-03 8.392784e-04 1.152808e-03 2.265185e-02 5.464986e-09
896 3.618999e-04 1.502423e-03 8.370875e-04 1.147857e-03 2.256073e-02 5.521969e-09
897 3.604150e-04 1.503382e-03 8.354692e-04 1.143223e-03 2.246982e-02 5.579641e-09
898 3.589477e-04 1.504130e-03 8.344089e-04 1.138861e-03 2.237968e-02 5.637928e-09
899 3.574993e-04 1.504689e-03 8.338873e-04 1.134717e-03 2.229040e-02 5.696594e-09
900 3.560713e-04 1.505085e-03 8.338495e-04 1.130705e-03 2.220207e-02 5.755189e-09
901 3.546748e-04 1.505349e-03 8.342544e-04 1.126735e-03 2.211537e-02 5.814015e-09
902 3.533138e-04 1.505514e-03 8.350753e-04 1.122715e-03 2.203055e-02 5.873524e-09
903 3.519922e-04 1.505623e-03 8.362550e-04 1.118552e-03 2.194787e-02 5.933963e-09
904 3.507175e-04 1.505718e-03 8.377466e-04 1.114156e-03 2.186781e-02 5.995638e-09
905 3.494903e-04 1.505852e-03 8.395274e-04 1.109460e-03 2.179044e-02 6.058830e-09
906 3.483083e-04 1.506060e-03 8.415831e-04 1.104407e-03 2.171563e-02 6.123683e-09
907 3.471700e-04 1.506389e-03 8.438996e-04 1.098956e-03 2.164330e-02 6.190374e-09
908 3.460653e-04 1.506875e-03 8.464563e-04 1.093094e-03 2.157285e-02 6.259023e-09
909 3.449889e-04 1.507554e-03 8.492476e-04 1.086811e-03 2.150399e-02 6.329899e-09
910 3.439275e-04 1.508452e-03 8.522627e-04 1.080116e-03 2.143595e-02 6.403374e-09
911 3.428713e-04 1.509596e-03 8.554941e-04 1.073013e-03 2.136814e-02 6.479625e-09
912 3.418074e-04 1.511006e-03 8.589362e-04 1.065518e-03 2.129982e-02 6.558267e-09
913 3.407331e-04 1.512693e-03 8.625741e-04 1.057671e-03 2.123085e-02 6.640217e-09
914 3.396411e-04 1.514667e-03 8.664229e-04 1.049497e-03 2.116085e-02 6.725618e-09
915 3.385087e-04 1.516930e-03 8.704802e-04 1.040997e-03 2.108844e-02 6.814385e-09
916 3.373259e-04 1.519484e-03 8.747295e-04 1.032183e-03 2.101306e-02 6.906489e-09
917 3.360827e-04 1.522317e-03 8.791520e-04 1.023043e-03 2.093413e-02 7.001769e-09
918 3.347697e-04 1.525424e-03 8.837604e-04 1.013578e-03 2.085113e-02 7.099921e-09
919 3.333952e-04 1.528754e-03 8.885284e-04 1.003774e-03 2.076458e-02 7.200770e-09
920 3.319591e-04 1.532303e-03 8.934156e-04 9.936305e-04 2.067452e-02 7.304051e-09
921 3.304517e-04 1.536030e-03 8.984414e-04 9.831343e-04 2.058040e-02 7.409464e-09
922 3.288834e-04 1.539904e-03 9.035988e-04 9.722800e-04 2.048288e-02 7.516493e-09
923 3.272554e-04 1.543870e-03 9.088444e-04 9.610777e-04 2.038205e-02 7.624609e-09
924 3.255660e-04 1.547899e-03 9.141538e-04 9.495215e-04 2.027781e-02 7.733581e-09
925 3.238254e-04 1.551957e-03 9.194441e-04 9.376282e-04 2.017081e-02 7.842965e-09
926 3.220412e-04 1.555978e-03 9.246104e-04 9.254000e-04 2.006152e-02 7.952430e-09
927 3.202327e-04 1.559922e-03 9.295845e-04 9.128350e-04 1.995112e-02 8.061656e-09
928 3.184190e-04 1.563714e-03 9.342778e-04 8.999821e-04 1.984075e-02 8.170419e-09
929 3.166120e-04 1.567321e-03 9.386068e-04 8.868651e-04 1.973113e-02 8.278353e-09
930 3.148314e-04 1.570663e-03 9.424889e-04 8.735035e-04 1.962347e-02 8.385275e-09
931 3.130876e-04 1.573703e-03 9.458710e-04 8.599320e-04 1.951838e-02 8.490645e-09
932 3.114005e-04 1.576343e-03 9.487040e-04 8.461985e-04 1.941702e-02 8.594449e-09
933 3.097878e-04 1.578512e-03 9.509010e-04 8.323412e-04 1.932043e-02 8.696574e-09
934 3.082709e-04 1.580176e-03 9.524672e-04 8.184202e-04 1.922992e-02 8.796984e-09
935 3.068628e-04 1.581261e-03 9.533500e-04 8.044956e-04 1.914622e-02 8.895430e-09
936 3.055782e-04 1.581673e-03 9.535971e-04 7.906546e-04 1.907030e-02 8.991404e-09
937 3.044432e-04 1.581381e-03 9.532008e-04 7.769593e-04 1.900357e-02 9.084681e-09
938 3.034590e-04 1.580346e-03 9.521559e-04 7.635154e-04 1.894604e-02 9.174835e-09
939 3.026241e-04 1.578499e-03 9.504505e-04 7.504529e-04 1.889760e-02 9.261504e-09
940 3.019368e-04 1.575821e-03 9.481098e-04 7.378897e-04 1.885802e-02 9.344167e-09
941 3.013818e-04 1.572343e-03 9.451430e-04 7.259014e-04 1.882631e-02 9.422276e-09
942 3.009563e-04 1.568033e-03 9.415250e-04 7.145862e-04 1.880213e-02 9.495187e-09
943 3.006404e-04 1.562931e-03 9.372976e-04 7.041096e-04 1.878428e-02 9.562195e-09
944 3.004313e-04 1.557091e-03 9.325317e-04 6.946670e-04 1.877248e-02 9.622786e-09
945 3.003111e-04 1.550494e-03 9.272632e-04 6.862656e-04 1.876552e-02 9.676634e-09
946 3.002614e-04 1.543251e-03 9.215835e-04 6.790200e-04 1.876223e-02 9.723266e-09
947 3.002685e-04 1.535396e-03 9.154666e-04 6.729830e-04 1.876183e-02 9.762401e-09
948 3.003141e-04 1.527015e-03 9.089336e-04 6.682516e-04 1.876315e-02 9.793783e-09
949 3.003915e-04 1.518147e-03 9.020660e-04 6.648352e-04 1.876575e-02 9.817384e-09
950 3.004997e-04 1.508972e-03 8.948957e-04 6.627546e-04 1.876963e-02 9.832916e-09
951 3.006412e-04 1.499583e-03 8.874806e-04 6.620108e-04 1.877494e-02 9.840312e-09
952 3.008218e-04 1.490135e-03 8.798498e-04 6.625601e-04 1.878212e-02 9.839746e-09
953 3.010447e-04 1.480745e-03 8.720747e-04 6.643865e-04 1.879148e-02 9.831516e-09
954 3.013196e-04 1.471541e-03 8.642449e-04 6.674313e-04 1.880365e-02 9.815910e-09
955 3.016600e-04 1.462641e-03 8.565089e-04 6.715721e-04 1.881963e-02 9.793068e-09
956 3.020375e-04 1.454172e-03 8.489038e-04 6.766725e-04 1.883779e-02 9.763494e-09
957 3.024599e-04 1.446228e-03 8.415648e-04 6.826550e-04 1.885874e-02 9.727511e-09
958 3.029329e-04 1.438974e-03 8.346381e-04 6.894909e-04 1.888291e-02 9.685175e-09
959 3.034514e-04 1.432575e-03 8.283580e-04 6.971119e-04 1.891008e-02 9.637549e-09
960 3.040087e-04 1.427156e-03 8.229168e-04 7.054305e-04 1.893988e-02 9.585390e-09
961 3.045859e-04 1.422782e-03 8.184607e-04 7.144266e-04 1.897120e-02 9.529100e-09
962 3.051432e-04 1.419526e-03 8.151413e-04 7.240841e-04 1.900150e-02 9.469291e-09
963 3.056587e-04 1.417443e-03 8.131509e-04 7.344104e-04 1.902940e-02 9.406652e-09
964 3.060986e-04 1.416603e-03 8.124720e-04 7.453999e-04 1.905277e-02 9.342112e-09
965 3.064347e-04 1.417064e-03 8.131631e-04 7.569968e-04 1.906976e-02 9.276480e-09
966 3.066501e-04 1.418878e-03 8.152604e-04 7.691365e-04 1.907921e-02 9.210120e-09
967 3.067252e-04 1.422095e-03 8.188154e-04 7.817583e-04 1.907982e-02 9.143867e-09
968 3.066356e-04 1.426744e-03 8.238930e-04 7.947566e-04 1.906992e-02 9.078611e-09
969 3.063774e-04 1.432858e-03 8.304565e-04 8.080399e-04 1.904910e-02 9.015215e-09
970 3.059381e-04 1.440469e-03 8.385082e-04 8.215009e-04 1.901653e-02 8.954272e-09
971 3.053149e-04 1.449579e-03 8.479289e-04 8.350393e-04 1.897188e-02 8.896471e-09
972 3.045384e-04 1.460165e-03 8.583815e-04 8.485180e-04 1.891704e-02 8.842550e-09
973 3.036481e-04 1.472200e-03 8.698828e-04 8.617821e-04 1.885443e-02 8.793141e-09
974 3.026318e-04 1.485602e-03 8.823624e-04 8.746715e-04 1.878309e-02 8.748712e-09
975 3.015145e-04 1.500286e-03 8.956848e-04 8.870358e-04 1.870444e-02 8.709793e-09
976 3.003425e-04 1.516204e-03 9.094656e-04 8.987310e-04 1.862128e-02 8.676401e-09
977 2.991570e-04 1.533296e-03 9.233490e-04 9.096641e-04 1.853620e-02 8.648633e-09
978 2.980104e-04 1.551492e-03 9.371828e-04 9.197691e-04 1.845256e-02 8.626924e-09
979 2.969043e-04 1.570680e-03 9.510112e-04 9.289179e-04 1.837056e-02 8.611585e-09
980 2.958286e-04 1.590830e-03 9.649349e-04 9.370650e-04 1.828963e-02 8.602543e-09
981 2.947754e-04 1.611895e-03 9.789006e-04 9.441737e-04 1.820930e-02 8.600216e-09
982 2.937022e-04 1.633858e-03 9.929502e-04 9.501824e-04 1.812710e-02 8.604507e-09
983 2.925780e-04 1.656654e-03 1.007003e-03 9.550982e-04 1.804138e-02 8.614626e-09
984 2.913704e-04 1.680164e-03 1.021038e-03 9.589481e-04 1.795046e-02 8.631993e-09
985 2.900343e-04 1.704240e-03 1.034839e-03 9.618917e-04 1.785182e-02 8.656605e-09
986 2.885474e-04 1.728763e-03 1.048349e-03 9.639072e-04 1.774438e-02 8.688091e-09
987 2.868820e-04 1.753518e-03 1.061728e-03 9.650636e-04 1.762686e-02 8.726964e-09
988 2.850308e-04 1.778219e-03 1.074638e-03 9.654063e-04 1.749923e-02 8.773560e-09
989 2.830143e-04 1.802521e-03 1.086886e-03 9.648702e-04 1.736327e-02 8.828525e-09
990 2.808659e-04 1.826047e-03 1.098041e-03 9.635048e-04 1.722173e-02 8.890925e-09
991 2.786398e-04 1.848402e-03 1.107762e-03 9.614013e-04 1.707814e-02 8.961783e-09
992 2.764249e-04 1.869194e-03 1.115516e-03 9.585996e-04 1.693861e-02 9.040471e-09
993 2.742918e-04 1.888029e-03 1.121000e-03 9.551043e-04 1.680773e-02 9.128272e-09
994 2.723204e-04 1.904628e-03 1.123733e-03 9.509446e-04 1.669103e-02 9.224809e-09
995 2.706538e-04 1.918466e-03 1.123472e-03 9.460613e-04 1.659736e-02 9.329996e-09
996 2.693754e-04 1.929186e-03 1.120000e-03 9.404569e-04 1.653157e-02 9.443720e-09
997 2.684922e-04 1.936460e-03 1.113286e-03 9.341977e-04 1.649350e-02 9.566015e-09
998 2.679228e-04 1.940104e-03 1.104100e-03 9.272314e-04 1.647713e-02 9.695991e-09
999 2.676656e-04 1.939754e-03 1.092842e-03 9.196427e-04 1.648143e-02 9.832983e-09
1000 2.676724e-04 1.935544e-03 1.079630e-03 9.113624e-04 1.650280e-02 9.976131e-09
1001 2.679415e-04 1.927449e-03 1.064720e-03 9.023806e-04 1.654012e-02 1.012444e-08
1002 2.683883e-04 1.915626e-03 1.048890e-03 8.926298e-04 1.658766e-02 1.027640e-08
1003 2.689228e-04 1.900455e-03 1.033176e-03 8.821958e-04 1.663946e-02 1.043138e-08
1004 2.694665e-04 1.882152e-03 1.018058e-03 8.710903e-04 1.668916e-02 1.058927e-08
1005 2.699673e-04 1.861142e-03 1.004243e-03 8.593186e-04 1.673296e-02 1.074859e-08
1006 2.703814e-04 1.837862e-03 9.925222e-04 8.469739e-04 1.676775e-02 1.090755e-08
1007 2.706043e-04 1.812797e-03 9.835112e-04 8.341874e-04 1.678778e-02 1.106438e-08
1008 2.706460e-04 1.786208e-03 9.774108e-04 8.210353e-04 1.679345e-02 1.121947e-08
1009 2.704948e-04 1.758861e-03 9.747611e-04 8.075961e-04 1.678496e-02 1.137222e-08
1010 2.701392e-04 1.731468e-03 9.758775e-04 7.941084e-04 1.676204e-02 1.152213e-08
1011 2.695960e-04 1.704275e-03 9.807600e-04 7.808021e-04 1.672568e-02 1.166926e-08
1012 2.689805e-04 1.677532e-03 9.892089e-04 7.679719e-04 1.668411e-02 1.181305e-08
1013 2.682042e-04 1.651654e-03 1.000592e-03 7.557298e-04 1.663156e-02 1.195307e-08
1014 2.672695e-04 1.626981e-03 1.015014e-03 7.441908e-04 1.656869e-02 1.208919e-08
1015 2.661980e-04 1.603583e-03 1.032182e-03 7.335464e-04 1.649716e-02 1.222184e-08
1016 2.649570e-04 1.581927e-03 1.051023e-03 7.236640e-04 1.641432e-02 1.235142e-08
1017 2.635481e-04 1.561941e-03 1.071159e-03 7.147523e-04 1.632051e-02 1.247888e-08
1018 2.620477e-04 1.543732e-03 1.092587e-03 7.068791e-04 1.622087e-02 1.260592e-08
1019 2.603604e-04 1.527574e-03 1.114183e-03 7.000773e-04 1.610979e-02 1.273327e-08
1020 2.586492e-04 1.513678e-03 1.135166e-03 6.943559e-04 1.599698e-02 1.286191e-08
1021 2.569335e-04 1.502333e-03 1.154787e-03 6.897111e-04 1.588418e-02 1.299219e-08
1022 2.552571e-04 1.493606e-03 1.172885e-03 6.860613e-04 1.577418e-02 1.312529e-08
1023 2.536300e-04 1.487205e-03 1.188655e-03 6.832901e-04 1.566739e-02 1.326199e-08
1024 2.520148e-04 1.483122e-03 1.202028e-03 6.813384e-04 1.556158e-02 1.340296e-08
1025 2.503738e-04 1.482232e-03 1.212718e-03 6.800611e-04 1.545465e-02 1.354832e-08
1026 2.487112e-04 1.484592e-03 1.220523e-03 6.793014e-04 1.534545e-02 1.369820e-08
1027 2.469747e-04 1.488978e-03 1.224733e-03 6.787453e-04 1.523147e-02 1.385301e-08
1028 2.450492e-04 1.493750e-03 1.225111e-03 6.786042e-04 1.510819e-02 1.401302e-08
1029 2.428242e-04 1.498319e-03 1.221030e-03 6.790436e-04 1.497064e-02 1.417810e-08
1030 2.402435e-04 1.503602e-03 1.212526e-03 6.800995e-04 1.481699e-02 1.434849e-08
1031 2.376334e-04 1.509877e-03 1.200960e-03 6.813858e-04 1.466266e-02 1.452422e-08
1032 2.348217e-04 1.515784e-03 1.187612e-03 6.828128e-04 1.449688e-02 1.470467e-08
1033 2.320011e-04 1.520538e-03 1.172530e-03 6.845507e-04 1.432987e-02 1.488904e-08
1034 2.292973e-04 1.523622e-03 1.153699e-03 6.862983e-04 1.416754e-02 1.507811e-08
1035 2.264503e-04 1.522164e-03 1.129591e-03 6.875799e-04 1.400384e-02 1.527150e-08
1036 2.233349e-04 1.517096e-03 1.104627e-03 6.883609e-04 1.383088e-02 1.546856e-08
1037 2.203552e-04 1.508468e-03 1.079481e-03 6.883035e-04 1.366657e-02 1.566950e-08
1038 2.175030e-04 1.496434e-03 1.053969e-03 6.871947e-04 1.350723e-02 1.587338e-08
1039 2.147250e-04 1.481406e-03 1.028005e-03 6.848734e-04 1.334737e-02 1.608015e-08
1040 2.120540e-04 1.464971e-03 1.001444e-03 6.814692e-04 1.318735e-02 1.628948e-08
1041 2.094999e-04 1.447532e-03 9.752472e-04 6.768910e-04 1.303163e-02 1.650033e-08
1042 2.070584e-04 1.429749e-03 9.505250e-04 6.710572e-04 1.288201e-02 1.671233e-08
1043 2.046312e-04 1.412089e-03 9.264293e-04 6.642114e-04 1.273555e-02 1.692408e-08
1044 2.022071e-04 1.394187e-03 9.034030e-04 6.566759e-04 1.259063e-02 1.713546e-08
1045 1.998381e-04 1.376635e-03 8.820998e-04 6.487096e-04 1.244650e-02 1.734581e-08
1046 1.974977e-04 1.359290e-03 8.627810e-04 6.403957e-04 1.230205e-02 1.755541e-08
1047 1.953400e-04 1.341901e-03 8.460100e-04 6.316265e-04 1.216951e-02 1.776281e-08
1048 1.933373e-04 1.324364e-03 8.317447e-04 6.224667e-04 1.204686e-02 1.796686e-08
1049 1.913754e-04 1.306802e-03 8.192397e-04 6.131128e-04 1.192535e-02 1.816658e-08
1050 1.894555e-04 1.289442e-03 8.085555e-04 6.037075e-04 1.180496e-02 1.836105e-08
1051 1.876693e-04 1.272597e-03 8.001453e-04 5.943955e-04 1.169182e-02 1.854956e-08
1052 1.860332e-04 1.256245e-03 7.936425e-04 5.853123e-04 1.158573e-02 1.873136e-08
1053 1.846257e-04 1.240903e-03 7.886711e-04 5.767345e-04 1.149200e-02 1.890485e-08
1054 1.832080e-04 1.227667e-03 7.853491e-04 5.685711e-04 1.139580e-02 1.906970e-08
1055 1.818499e-04 1.216756e-03 7.843064e-04 5.607508e-04 1.130179e-02 1.922511e-08
1056 1.804154e-04 1.208100e-03 7.859453e-04 5.533898e-04 1.120118e-02 1.936909e-08
1057 1.788311e-04 1.201547e-03 7.905965e-04 5.463890e-04 1.108963e-02 1.950153e-08
1058 1.773333e-04 1.197205e-03 7.986982e-04 5.398413e-04 1.098268e-02 1.962247e-08
1059 1.756867e-04 1.194998e-03 8.096503e-04 5.338930e-04 1.086707e-02 1.973092e-08
1060 1.739208e-04 1.194576e-03 8.225912e-04 5.287345e-04 1.074443e-02 1.982699e-08
1061 1.717929e-04 1.195508e-03 8.372870e-04 5.241158e-04 1.059905e-02 1.990962e-08
1062 1.696093e-04 1.197188e-03 8.521833e-04 5.197762e-04 1.045146e-02 1.997903e-08
1063 1.672849e-04 1.199152e-03 8.653401e-04 5.154246e-04 1.029720e-02 2.003580e-08
1064 1.650873e-04 1.200639e-03 8.770549e-04 5.110893e-04 1.015324e-02 2.008053e-08
1065 1.629995e-04 1.201069e-03 8.865120e-04 5.065432e-04 1.001923e-02 2.011524e-08
1066 1.611891e-04 1.200507e-03 8.919269e-04 5.021568e-04 9.904528e-03 2.014202e-08
1067 1.598942e-04 1.198881e-03 8.932056e-04 4.978739e-04 9.824948e-03 2.016256e-08
1068 1.591521e-04 1.196235e-03 8.901519e-04 4.939366e-04 9.782283e-03 2.017862e-08
1069 1.589214e-04 1.192999e-03 8.817749e-04 4.905883e-04 9.773402e-03 2.019217e-08
1070 1.593024e-04 1.189416e-03 8.681799e-04 4.881953e-04 9.804034e-03 2.020548e-08
1071 1.603896e-04 1.186159e-03 8.500237e-04 4.865520e-04 9.878976e-03 2.022043e-08
1072 1.621931e-04 1.184039e-03 8.279150e-04 4.858093e-04 9.997160e-03 2.023892e-08
1073 1.642958e-04 1.183680e-03 8.023423e-04 4.864102e-04 1.013167e-02 2.026319e-08
1074 1.663547e-04 1.185095e-03 7.741460e-04 4.881403e-04 1.026249e-02 2.029563e-08
1075 1.680286e-04 1.188375e-03 7.439187e-04 4.904919e-04 1.036913e-02 2.033853e-08
1076 1.694964e-04 1.194379e-03 7.138549e-04 4.931950e-04 1.046337e-02 2.039426e-08
1077 1.705620e-04 1.203742e-03 6.849480e-04 4.959773e-04 1.053257e-02 2.046516e-08
1078 1.710791e-04 1.215805e-03 6.582609e-04 4.986269e-04 1.056778e-02 2.055317e-08
1079 1.709636e-04 1.230190e-03 6.348808e-04 5.010370e-04 1.056436e-02 2.066038e-08
1080 1.702705e-04 1.246616e-03 6.155011e-04 5.031019e-04 1.052535e-02 2.078831e-08
1081 1.689551e-04 1.263844e-03 6.012019e-04 5.044175e-04 1.044896e-02 2.093760e-08
1082 1.671466e-04 1.280598e-03 5.922966e-04 5.045373e-04 1.034390e-02 2.110692e-08
1083 1.647978e-04 1.296416e-03 5.876340e-04 5.033974e-04 1.020886e-02 2.129610e-08
1084 1.620282e-04 1.310923e-03 5.860373e-04 5.010555e-04 1.005266e-02 2.150497e-08
1085 1.590206e-04 1.323307e-03 5.865986e-04 4.975948e-04 9.886112e-03 2.173083e-08
1086 1.559570e-04 1.332469e-03 5.883643e-04 4.930848e-04 9.715781e-03 2.197026e-08
1087 1.528188e-04 1.338605e-03 5.896294e-04 4.877352e-04 9.542615e-03 2.222090e-08
1088 1.490830e-04 1.342133e-03 5.896020e-04 4.818262e-04 9.336796e-03 2.248034e-08
1089 1.451458e-04 1.343229e-03 5.884405e-04 4.756497e-04 9.119953e-03 2.274553e-08
1090 1.411430e-04 1.342189e-03 5.857258e-04 4.699034e-04 8.898664e-03 2.301417e-08
1091 1.369880e-04 1.339740e-03 5.810675e-04 4.649485e-04 8.665463e-03 2.328471e-08
1092 1.327209e-04 1.336222e-03 5.747293e-04 4.610914e-04 8.420435e-03 2.355612e-08
1093 1.284608e-04 1.332215e-03 5.667329e-04 4.587362e-04 8.170338e-03 2.382896e-08
1094 1.242301e-04 1.327628e-03 5.570984e-04 4.576452e-04 7.917888e-03 2.410339e-08
1095 1.201010e-04 1.322318e-03 5.469027e-04 4.578939e-04 7.668393e-03 2.438107e-08
1096 1.162593e-04 1.315966e-03 5.366987e-04 4.590736e-04 7.434867e-03 2.466418e-08
1097 1.129049e-04 1.308415e-03 5.266137e-04 4.608994e-04 7.232695e-03 2.495485e-08
1098 1.103105e-04 1.299241e-03 5.173679e-04 4.629099e-04 7.078500e-03 2.525440e-08
1099 1.085573e-04 1.287608e-03 5.090297e-04 4.647407e-04 6.975253e-03 2.556316e-08
1100 1.077855e-04 1.273156e-03 5.016886e-04 4.659272e-04 6.931889e-03 2.588087e-08
1101 1.079028e-04 1.255715e-03 4.957919e-04 4.660061e-04 6.943365e-03 2.620904e-08
1102 1.088761e-04 1.235542e-03 4.913146e-04 4.651265e-04 7.008025e-03 2.654797e-08
1103 1.104491e-04 1.212609e-03 4.882599e-04 4.630532e-04 7.108953e-03 2.689738e-08
1104 1.124549e-04 1.187345e-03 4.863357e-04 4.598431e-04 7.234840e-03 2.725539e-08
1105 1.146659e-04 1.160186e-03 4.856828e-04 4.554902e-04 7.371597e-03 2.761878e-08
1106 1.169030e-04 1.131674e-03 4.861287e-04 4.495121e-04 7.509379e-03 2.798509e-08
1107 1.188479e-04 1.102675e-03 4.872099e-04 4.421271e-04 7.628299e-03 2.834950e-08
1108 1.204276e-04 1.073838e-03 4.886227e-04 4.337017e-04 7.722623e-03 2.870773e-08
1109 1.215859e-04 1.045970e-03 4.895675e-04 4.244207e-04 7.788543e-03 2.905535e-08
1110 1.221083e-04 1.019963e-03 4.894260e-04 4.142267e-04 7.813388e-03 2.938820e-08
1111 1.219661e-04 9.965851e-04 4.879311e-04 4.035365e-04 7.795718e-03 2.970222e-08
1112 1.210848e-04 9.763386e-04 4.856944e-04 3.925951e-04 7.731122e-03 2.999489e-08
1113 1.194954e-04 9.594566e-04 4.831902e-04 3.819873e-04 7.621156e-03 3.026444e-08
1114 1.172172e-04 9.461501e-04 4.808791e-04 3.721329e-04 7.467859e-03 3.051061e-08
1115 1.141987e-04 9.365849e-04 4.791055e-04 3.632070e-04 7.269347e-03 3.073690e-08
1116 1.105092e-04 9.303910e-04 4.780065e-04 3.553742e-04 7.030386e-03 3.094574e-08
1117 1.064106e-04 9.270282e-04 4.781608e-04 3.484616e-04 6.767443e-03 3.114201e-08
1118 1.021338e-04 9.258745e-04 4.794839e-04 3.427022e-04 6.494861e-03 3.133026e-08
1119 9.784078e-05 9.262848e-04 4.815432e-04 3.380695e-04 6.223524e-03 3.151698e-08
1120 9.372792e-05 9.274790e-04 4.841446e-04 3.342063e-04 5.965901e-03 3.170891e-08
1121 8.998036e-05 9.288518e-04 4.868246e-04 3.309778e-04 5.734142e-03 3.191219e-08
1122 8.676102e-05 9.297593e-04 4.889275e-04 3.282404e-04 5.538310e-03 3.213207e-08
1123 8.420419e-05 9.298259e-04 4.897718e-04 3.256328e-04 5.386392e-03 3.237240e-08
1124 8.231059e-05 9.285919e-04 4.890550e-04 3.231966e-04 5.278277e-03 3.263637e-08
1125 8.107643e-05 9.256698e-04 4.863569e-04 3.210848e-04 5.212903e-03 3.292663e-08
1126 8.046199e-05 9.209195e-04 4.815071e-04 3.194920e-04 5.187375e-03 3.324271e-08
1127 8.039230e-05 9.143878e-04 4.747042e-04 3.182710e-04 5.196034e-03 3.358295e-08
1128 8.073326e-05 9.061746e-04 4.658148e-04 3.170673e-04 5.230075e-03 3.394481e-08
1129 8.143506e-05 8.963112e-04 4.552956e-04 3.157491e-04 5.286267e-03 3.432327e-08
1130 8.242154e-05 8.850290e-04 4.436592e-04 3.141797e-04 5.359524e-03 3.471364e-08
1131 8.374921e-05 8.726018e-04 4.317092e-04 3.121607e-04 5.452831e-03 3.510931e-08
1132 8.534208e-05 8.593332e-04 4.202027e-04 3.099233e-04 5.561710e-03 3.550445e-08
1133 8.707039e-05 8.455327e-04 4.101305e-04 3.074441e-04 5.678285e-03 3.589368e-08
1134 8.892184e-05 8.315058e-04 4.024326e-04 3.048264e-04 5.801067e-03 3.627162e-08
1135 9.083750e-05 8.176224e-04 3.974463e-04 3.023795e-04 5.925752e-03 3.663348e-08
1136 9.281521e-05 8.041693e-04 3.952681e-04 3.003205e-04 6.051729e-03 3.697518e-08
1137 9.479400e-05 7.916415e-04 3.959491e-04 2.987576e-04 6.175207e-03 3.729510e-08
1138 9.668370e-05 7.805550e-04 3.990539e-04 2.976262e-04 6.290646e-03 3.759243e-08
1139 9.843912e-05 7.713166e-04 4.041086e-04 2.967213e-04 6.394921e-03 3.786705e-08
1140 1.001082e-04 7.641320e-04 4.099976e-04 2.958546e-04 6.491125e-03 3.812043e-08
1141 1.015692e-04 7.592250e-04 4.158003e-04 2.948397e-04 6.572083e-03 3.835475e-08
1142 1.027518e-04 7.565935e-04 4.207246e-04 2.934768e-04 6.633948e-03 3.857261e-08
1143 1.038189e-04 7.560686e-04 4.241340e-04 2.914721e-04 6.687627e-03 3.877861e-08
1144 1.048061e-04 7.571084e-04 4.251796e-04 2.883901e-04 6.735752e-03 3.897784e-08
1145 1.057778e-04 7.590646e-04 4.235668e-04 2.840827e-04 6.783225e-03 3.917513e-08
1146 1.068046e-04 7.612829e-04 4.195344e-04 2.789037e-04 6.835319e-03 3.937560e-08
1147 1.079191e-04 7.624259e-04 4.129196e-04 2.732469e-04 6.893382e-03 3.958449e-08
1148 1.090883e-04 7.618876e-04 4.046056e-04 2.677777e-04 6.957720e-03 3.980616e-08
1149 1.102721e-04 7.587198e-04 3.957735e-04 2.631647e-04 7.026481e-03 4.004369e-08
1150 1.114717e-04 7.525535e-04 3.871927e-04 2.603211e-04 7.099656e-03 4.030039e-08
1151 1.125521e-04 7.434648e-04 3.794355e-04 2.596517e-04 7.168392e-03 4.057803e-08
1152 1.133778e-04 7.311204e-04 3.731278e-04 2.608558e-04 7.223803e-03 4.087741e-08
1153 1.139322e-04 7.154519e-04 3.683247e-04 2.637550e-04 7.265592e-03 4.119752e-08
1154 1.140986e-04 6.979365e-04 3.653706e-04 2.675305e-04 7.283610e-03 4.153647e-08
1155 1.138432e-04 6.810339e-04 3.635838e-04 2.718338e-04 7.275225e-03 4.189236e-08
1156 1.130722e-04 6.660562e-04 3.623377e-04 2.758542e-04 7.234137e-03 4.226207e-08
1157 1.116230e-04 6.537803e-04 3.616481e-04 2.789835e-04 7.149481e-03 4.264135e-08
1158 1.094559e-04 6.449331e-04 3.613547e-04 2.806892e-04 7.018262e-03 4.302500e-08
1159 1.066618e-04 6.403725e-04 3.611065e-04 2.806275e-04 6.845730e-03 4.340783e-08
1160 1.031474e-04 6.399597e-04 3.607383e-04 2.787459e-04 6.625199e-03 4.378531e-08
1161 9.882091e-05 6.433178e-04 3.602629e-04 2.753794e-04 6.350247e-03 4.415275e-08