# Iterations  ResRho  ResRhoU  ResRhoV  ResRhoW  ResRhoE  ResTrb
VARIABLES=iterations ResRho  ResRhoU  ResRhoV  ResRhoW  ResRhoE  ResTrb
ZONE T="WOLF HM1"
1601 1.849089e-03 4.863710e-03 5.138420e-03 9.382029e-03 1.153979e-01 2.922156e-09
1602 1.699185e-03 4.813328e-03 5.120263e-03 9.485977e-03 1.059179e-01 2.813738e-09
1603 1.632124e-03 4.792557e-03 5.110030e-03 9.519271e-03 1.016788e-01 2.770803e-09
1604 1.571131e-03 4.774303e-03 5.097525e-03 9.536327e-03 9.782519e-02 2.733341e-09
1605 1.516809e-03 4.758283e-03 5.082053e-03 9.535087e-03 9.439596e-02 2.700412e-09
1606 1.469733e-03 4.744516e-03 5.062085e-03 9.513929e-03 9.142862e-02 2.670790e-09
1607 1.430252e-03 4.732504e-03 5.036593e-03 9.471799e-03 8.894515e-02 2.643470e-09
1608 1.398550e-03 4.722239e-03 5.005116e-03 9.407788e-03 8.695763e-02 2.617410e-09
1609 1.374521e-03 4.713830e-03 4.966881e-03 9.321249e-03 8.545953e-02 2.591814e-09
1610 1.357834e-03 4.707065e-03 4.921273e-03 9.213008e-03 8.442975e-02 2.566124e-09
1611 1.348082e-03 4.701813e-03 4.868292e-03 9.084601e-03 8.384196e-02 2.540536e-09
1612 1.344533e-03 4.697684e-03 4.807789e-03 8.936625e-03 8.364892e-02 2.515369e-09
1613 1.346180e-03 4.694675e-03 4.739931e-03 8.770766e-03 8.378631e-02 2.490976e-09
1614 1.352039e-03 4.692495e-03 4.664795e-03 8.588347e-03 8.419139e-02 2.467185e-09
1615 1.361067e-03 4.691148e-03 4.583075e-03 8.391541e-03 8.479713e-02 2.443497e-09
1616 1.372194e-03 4.690615e-03 4.495546e-03 8.182485e-03 8.553516e-02 2.420100e-09
1617 1.384468e-03 4.690813e-03 4.403036e-03 7.963807e-03 8.634441e-02 2.397243e-09
1618 1.396898e-03 4.691529e-03 4.306697e-03 7.738203e-03 8.716183e-02 2.374679e-09
1619 1.408715e-03 4.692655e-03 4.207573e-03 7.508995e-03 8.793838e-02 2.352493e-09
1620 1.419257e-03 4.694008e-03 4.106889e-03 7.279610e-03 8.863205e-02 2.330817e-09
1621 1.427896e-03 4.695562e-03 4.006148e-03 7.053115e-03 8.920326e-02 2.309560e-09
1622 1.434175e-03 4.697274e-03 3.906856e-03 6.832649e-03 8.962335e-02 2.288977e-09
1623 1.437824e-03 4.698959e-03 3.810189e-03 6.621176e-03 8.987543e-02 2.269318e-09
1624 1.438567e-03 4.700574e-03 3.717209e-03 6.422196e-03 8.994184e-02 2.250932e-09
1625 1.436210e-03 4.701934e-03 3.629010e-03 6.238244e-03 8.981036e-02 2.233947e-09
1626 1.430694e-03 4.702908e-03 3.546984e-03 6.071297e-03 8.947747e-02 2.218879e-09
1627 1.422049e-03 4.703484e-03 3.471862e-03 5.922975e-03 8.894525e-02 2.203515e-09
1628 1.410398e-03 4.703699e-03 3.404306e-03 5.794118e-03 8.822163e-02 2.189719e-09
1629 1.395946e-03 4.703417e-03 3.344627e-03 5.684295e-03 8.731969e-02 2.177965e-09
1630 1.378926e-03 4.702660e-03 3.292951e-03 5.592606e-03 8.625448e-02 2.168508e-09
1631 1.359651e-03 4.701484e-03 3.249061e-03 5.517760e-03 8.504564e-02 2.161330e-09
1632 1.338567e-03 4.699978e-03 3.212511e-03 5.457733e-03 8.372144e-02 2.156417e-09
1633 1.316126e-03 4.698103e-03 3.182548e-03 5.409620e-03 8.231033e-02 2.153929e-09
1634 1.292781e-03 4.695927e-03 3.158447e-03 5.370703e-03 8.084106e-02 2.154027e-09
1635 1.268975e-03 4.693485e-03 3.139098e-03 5.337690e-03 7.934160e-02 2.156715e-09
1636 1.245123e-03 4.690833e-03 3.123417e-03 5.307933e-03 7.783839e-02 2.162122e-09
1637 1.221569e-03 4.688074e-03 3.110399e-03 5.278659e-03 7.635333e-02 2.170233e-09
1638 1.198699e-03 4.685382e-03 3.099128e-03 5.247414e-03 7.491096e-02 2.180783e-09
1639 1.176997e-03 4.682901e-03 3.088652e-03 5.212519e-03 7.354203e-02 2.193632e-09
1640 1.156820e-03 4.680683e-03 3.078013e-03 5.172850e-03 7.226936e-02 2.208551e-09
1641 1.138267e-03 4.678811e-03 3.066148e-03 5.127427e-03 7.109953e-02 2.223842e-09
1642 1.121417e-03 4.677327e-03 3.052517e-03 5.075630e-03 7.003753e-02 2.240472e-09
1643 1.106352e-03 4.676165e-03 3.036933e-03 5.017603e-03 6.908869e-02 2.258573e-09
1644 1.092965e-03 4.675431e-03 3.018585e-03 4.953534e-03 6.824646e-02 2.277998e-09
1645 1.081108e-03 4.675283e-03 2.997256e-03 4.884254e-03 6.750140e-02 2.298590e-09
1646 1.070639e-03 4.675788e-03 2.972787e-03 4.810606e-03 6.684469e-02 2.320236e-09
1647 1.061448e-03 4.676942e-03 2.945118e-03 4.733956e-03 6.626942e-02 2.342801e-09
1648 1.053211e-03 4.678767e-03 2.914187e-03 4.655544e-03 6.575502e-02 2.366011e-09
1649 1.045727e-03 4.681347e-03 2.880381e-03 4.576521e-03 6.528870e-02 2.390054e-09
1650 1.038716e-03 4.684671e-03 2.843781e-03 4.498278e-03 6.485265e-02 2.414872e-09
1651 1.031961e-03 4.688761e-03 2.804807e-03 4.422034e-03 6.443316e-02 2.440274e-09
1652 1.025378e-03 4.693536e-03 2.763615e-03 4.348701e-03 6.402500e-02 2.466371e-09
1653 1.018812e-03 4.699070e-03 2.720797e-03 4.278950e-03 6.361823e-02 2.493480e-09
1654 1.012205e-03 4.705397e-03 2.676756e-03 4.212953e-03 6.320912e-02 2.521706e-09
1655 1.005484e-03 4.712471e-03 2.632031e-03 4.150485e-03 6.279290e-02 2.551207e-09
1656 9.986601e-04 4.720352e-03 2.587066e-03 4.091351e-03 6.237029e-02 2.582138e-09
1657 9.917369e-04 4.728983e-03 2.542199e-03 4.035185e-03 6.194164e-02 2.614602e-09
1658 9.846723e-04 4.738282e-03 2.497898e-03 3.981370e-03 6.150408e-02 2.648716e-09
1659 9.774761e-04 4.748319e-03 2.454551e-03 3.928998e-03 6.105820e-02 2.684880e-09
1660 9.701949e-04 4.758957e-03 2.412378e-03 3.877636e-03 6.060676e-02 2.723079e-09
1661 9.627975e-04 4.770083e-03 2.371760e-03 3.826399e-03 6.014775e-02 2.763556e-09
1662 9.553491e-04 4.781572e-03 2.332996e-03 3.774808e-03 5.968496e-02 2.806182e-09
1663 9.478340e-04 4.793300e-03 2.296084e-03 3.722493e-03 5.921743e-02 2.849640e-09
1664 9.402480e-04 4.805174e-03 2.261046e-03 3.669256e-03 5.874503e-02 2.895715e-09
1665 9.325981e-04 4.817044e-03 2.228030e-03 3.615086e-03 5.826803e-02 2.944759e-09
1666 9.248787e-04 4.828740e-03 2.197111e-03 3.560260e-03 5.778592e-02 2.996868e-09
1667 9.170273e-04 4.840131e-03 2.168165e-03 3.505075e-03 5.729476e-02 3.052190e-09
1668 9.090405e-04 4.851042e-03 2.141374e-03 3.450051e-03 5.679423e-02 3.110788e-09
1669 9.008711e-04 4.861290e-03 2.116795e-03 3.395837e-03 5.628131e-02 3.170503e-09
1670 8.925147e-04 4.870674e-03 2.094539e-03 3.342983e-03 5.575560e-02 3.226342e-09
1671 8.839896e-04 4.879067e-03 2.074731e-03 3.292058e-03 5.521828e-02 3.285428e-09
1672 8.753404e-04 4.886412e-03 2.057491e-03 3.243489e-03 5.467212e-02 3.347483e-09
1673 8.665339e-04 4.892609e-03 2.042816e-03 3.197595e-03 5.411499e-02 3.412999e-09
1674 8.575361e-04 4.897552e-03 2.030825e-03 3.154626e-03 5.354469e-02 3.481919e-09
1675 8.484060e-04 4.901175e-03 2.021542e-03 3.114682e-03 5.296501e-02 3.554081e-09
1676 8.392693e-04 4.903413e-03 2.014871e-03 3.077661e-03 5.238389e-02 3.629182e-09
1677 8.302871e-04 4.904269e-03 2.010979e-03 3.043291e-03 5.181151e-02 3.707190e-09
1678 8.214876e-04 4.903674e-03 2.009644e-03 3.011242e-03 5.124951e-02 3.787933e-09
1679 8.129093e-04 4.901606e-03 2.010585e-03 2.981206e-03 5.070050e-02 3.871059e-09
1680 8.046425e-04 4.898052e-03 2.013418e-03 2.952873e-03 5.017016e-02 3.956399e-09
1681 7.967345e-04 4.893079e-03 2.017701e-03 2.925931e-03 4.966161e-02 4.043802e-09
1682 7.892426e-04 4.886768e-03 2.023050e-03 2.900080e-03 4.917873e-02 4.133003e-09
1683 7.821999e-04 4.879209e-03 2.029093e-03 2.875061e-03 4.872379e-02 4.223722e-09
1684 7.756276e-04 4.870493e-03 2.035453e-03 2.850573e-03 4.829816e-02 4.315660e-09
1685 7.695362e-04 4.860760e-03 2.041646e-03 2.826428e-03 4.790292e-02 4.408631e-09
1686 7.638920e-04 4.850097e-03 2.047405e-03 2.802455e-03 4.753604e-02 4.502168e-09
1687 7.586868e-04 4.838566e-03 2.052411e-03 2.778575e-03 4.719707e-02 4.596121e-09
1688 7.539800e-04 4.826200e-03 2.056371e-03 2.754817e-03 4.688964e-02 4.690372e-09
1689 7.497161e-04 4.813060e-03 2.059076e-03 2.730947e-03 4.661026e-02 4.784633e-09
1690 7.458561e-04 4.799231e-03 2.060448e-03 2.706845e-03 4.635650e-02 4.878728e-09
1691 7.423455e-04 4.784878e-03 2.060412e-03 2.682312e-03 4.612524e-02 4.972527e-09
1692 7.391393e-04 4.770089e-03 2.058941e-03 2.657312e-03 4.591372e-02 5.066072e-09
1693 7.362011e-04 4.754946e-03 2.056068e-03 2.631786e-03 4.571969e-02 5.159540e-09
1694 7.335153e-04 4.739553e-03 2.052118e-03 2.605617e-03 4.554249e-02 5.252978e-09
1695 7.310163e-04 4.723984e-03 2.047267e-03 2.578850e-03 4.537795e-02 5.346343e-09
1696 7.286626e-04 4.708412e-03 2.041607e-03 2.551561e-03 4.522382e-02 5.439996e-09
1697 7.264424e-04 4.692913e-03 2.035268e-03 2.523787e-03 4.507951e-02 5.530906e-09
1698 7.243120e-04 4.677475e-03 2.028422e-03 2.495661e-03 4.494224e-02 5.620548e-09
1699 7.222188e-04 4.662128e-03 2.021224e-03 2.467247e-03 4.480877e-02 5.711720e-09
1700 7.201448e-04 4.646889e-03 2.013761e-03 2.438719e-03 4.467777e-02 5.804881e-09
1701 7.180845e-04 4.631775e-03 2.006041e-03 2.410313e-03 4.454870e-02 5.900261e-09
1702 7.160487e-04 4.616809e-03 1.998100e-03 2.381878e-03 4.442241e-02 5.998234e-09
1703 7.140059e-04 4.602007e-03 1.990039e-03 2.353053e-03 4.429720e-02 6.098939e-09
1704 7.119160e-04 4.587366e-03 1.981755e-03 2.324172e-03 4.417071e-02 6.202320e-09
1705 7.097906e-04 4.572795e-03 1.973061e-03 2.295490e-03 4.404357e-02 6.308046e-09
1706 7.076379e-04 4.558240e-03 1.963862e-03 2.266919e-03 4.391651e-02 6.415907e-09
1707 7.054964e-04 4.543668e-03 1.954195e-03 2.238380e-03 4.379181e-02 6.525368e-09
1708 7.034340e-04 4.528921e-03 1.943906e-03 2.209739e-03 4.367376e-02 6.636062e-09
1709 7.015583e-04 4.513812e-03 1.932859e-03 2.180850e-03 4.356899e-02 6.746351e-09
1710 6.998776e-04 4.498429e-03 1.920961e-03 2.151701e-03 4.347818e-02 6.853513e-09
1711 6.983810e-04 4.482748e-03 1.908148e-03 2.122174e-03 4.340099e-02 6.959073e-09
1712 6.971167e-04 4.466719e-03 1.894271e-03 2.092095e-03 4.334076e-02 7.061641e-09
1713 6.961717e-04 4.450315e-03 1.879288e-03 2.061362e-03 4.330248e-02 7.160340e-09
1714 6.956110e-04 4.433411e-03 1.863128e-03 2.029942e-03 4.329001e-02 7.253845e-09
1715 6.955223e-04 4.415896e-03 1.846012e-03 1.997931e-03 4.330853e-02 7.341218e-09
1716 6.958913e-04 4.397728e-03 1.828193e-03 1.965395e-03 4.335723e-02 7.421634e-09
1717 6.967656e-04 4.378819e-03 1.809880e-03 1.932476e-03 4.343862e-02 7.494262e-09
1718 6.982264e-04 4.358993e-03 1.791358e-03 1.899235e-03 4.355709e-02 7.558833e-09
1719 7.003140e-04 4.338130e-03 1.772823e-03 1.865818e-03 4.371490e-02 7.614594e-09
1720 7.029997e-04 4.316106e-03 1.754913e-03 1.832510e-03 4.390994e-02 7.661814e-09
1721 7.062940e-04 4.292754e-03 1.737898e-03 1.799593e-03 4.414250e-02 7.700216e-09
1722 7.101893e-04 4.268035e-03 1.722063e-03 1.767498e-03 4.441212e-02 7.729698e-09
1723 7.145724e-04 4.242016e-03 1.707783e-03 1.736638e-03 4.471227e-02 7.748869e-09
1724 7.194383e-04 4.214415e-03 1.695423e-03 1.707650e-03 4.504152e-02 7.757759e-09
1725 7.247693e-04 4.185157e-03 1.685258e-03 1.681098e-03 4.539816e-02 7.758488e-09
1726 7.305853e-04 4.154152e-03 1.677396e-03 1.657651e-03 4.578289e-02 7.751205e-09
1727 7.368445e-04 4.121293e-03 1.672285e-03 1.638121e-03 4.619284e-02 7.736355e-09
1728 7.435111e-04 4.086531e-03 1.669946e-03 1.623078e-03 4.662550e-02 7.715045e-09
1729 7.505398e-04 4.049965e-03 1.670624e-03 1.613168e-03 4.707765e-02 7.687781e-09
1730 7.578518e-04 4.011995e-03 1.674434e-03 1.608566e-03 4.754429e-02 7.655273e-09
1731 7.653990e-04 3.972575e-03 1.681635e-03 1.609553e-03 4.802271e-02 7.618449e-09
1732 7.730921e-04 3.932202e-03 1.692477e-03 1.616050e-03 4.850762e-02 7.578002e-09
1733 7.809284e-04 3.891105e-03 1.706806e-03 1.627720e-03 4.899830e-02 7.534786e-09
1734 7.889214e-04 3.849532e-03 1.724449e-03 1.644310e-03 4.949593e-02 7.487274e-09
1735 7.969454e-04 3.807648e-03 1.745353e-03 1.665318e-03 4.999271e-02 7.437036e-09
1736 8.049482e-04 3.766007e-03 1.769321e-03 1.690257e-03 5.048530e-02 7.384790e-09
1737 8.128715e-04 3.725368e-03 1.796094e-03 1.718652e-03 5.097016e-02 7.330895e-09
1738 8.206259e-04 3.686438e-03 1.825552e-03 1.749838e-03 5.144199e-02 7.275415e-09
1739 8.281290e-04 3.650042e-03 1.857389e-03 1.783299e-03 5.189591e-02 7.218435e-09
1740 8.352942e-04 3.617053e-03 1.891636e-03 1.818461e-03 5.232654e-02 7.160284e-09
1741 8.419356e-04 3.588581e-03 1.928220e-03 1.854719e-03 5.272236e-02 7.100898e-09
1742 8.479469e-04 3.565453e-03 1.966769e-03 1.891678e-03 5.307651e-02 7.040718e-09
1743 8.532895e-04 3.548705e-03 2.007131e-03 1.928896e-03 5.338614e-02 6.980014e-09
1744 8.578056e-04 3.539101e-03 2.049567e-03 1.966003e-03 5.364161e-02 6.918213e-09
1745 8.614113e-04 3.537461e-03 2.094633e-03 2.002756e-03 5.383742e-02 6.855256e-09
1746 8.639490e-04 3.544037e-03 2.142528e-03 2.038767e-03 5.396334e-02 6.791531e-09
1747 8.654155e-04 3.559380e-03 2.192483e-03 2.074023e-03 5.401929e-02 6.727623e-09
1748 8.656580e-04 3.583594e-03 2.244639e-03 2.108357e-03 5.399570e-02 6.664071e-09
1749 8.646945e-04 3.616608e-03 2.299032e-03 2.141617e-03 5.389314e-02 6.589907e-09
1750 8.623273e-04 3.658209e-03 2.355545e-03 2.173608e-03 5.369906e-02 6.516910e-09
1751 8.584229e-04 3.707797e-03 2.413883e-03 2.204416e-03 5.340480e-02 6.446118e-09
1752 8.531529e-04 3.764697e-03 2.474060e-03 2.234220e-03 5.302125e-02 6.378768e-09
1753 8.464882e-04 3.828284e-03 2.535153e-03 2.262678e-03 5.254676e-02 6.316492e-09
1754 8.384592e-04 3.897581e-03 2.596759e-03 2.289644e-03 5.198326e-02 6.261063e-09
1755 8.290284e-04 3.971386e-03 2.657732e-03 2.315206e-03 5.132966e-02 6.213381e-09
1756 8.182340e-04 4.048980e-03 2.716373e-03 2.339266e-03 5.058941e-02 6.175260e-09
1757 8.062145e-04 4.129981e-03 2.771600e-03 2.361898e-03 4.977196e-02 6.149698e-09
1758 7.930253e-04 4.213262e-03 2.822808e-03 2.382804e-03 4.888157e-02 6.137947e-09
1759 7.784542e-04 4.298081e-03 2.869644e-03 2.401893e-03 4.790694e-02 6.138903e-09
1760 7.627258e-04 4.383636e-03 2.912068e-03 2.419317e-03 4.686410e-02 6.154009e-09
1761 7.461212e-04 4.468423e-03 2.950271e-03 2.435006e-03 4.577256e-02 6.183678e-09
1762 7.291277e-04 4.551026e-03 2.982909e-03 2.448983e-03 4.466440e-02 6.226805e-09
1763 7.119486e-04 4.629921e-03 3.008001e-03 2.461068e-03 4.355396e-02 6.286739e-09
1764 6.948314e-04 4.704100e-03 3.025655e-03 2.471284e-03 4.245945e-02 6.364007e-09
1765 6.781363e-04 4.772599e-03 3.033522e-03 2.479612e-03 4.140704e-02 6.456519e-09
1766 6.625133e-04 4.833562e-03 3.034921e-03 2.485533e-03 4.043928e-02 6.562830e-09
1767 6.481911e-04 4.885673e-03 3.028125e-03 2.488833e-03 3.957537e-02 6.684359e-09
1768 6.357310e-04 4.927883e-03 3.011003e-03 2.489322e-03 3.885060e-02 6.820409e-09
1769 6.258965e-04 4.959359e-03 2.981552e-03 2.486560e-03 3.831005e-02 6.965801e-09
1770 6.188636e-04 4.979417e-03 2.939506e-03 2.480152e-03 3.796464e-02 7.112643e-09
1771 6.147740e-04 4.987660e-03 2.884818e-03 2.470270e-03 3.782242e-02 7.266347e-09
1772 6.140066e-04 4.983221e-03 2.817455e-03 2.456848e-03 3.790234e-02 7.425083e-09
1773 6.165987e-04 4.965021e-03 2.737440e-03 2.439582e-03 3.820050e-02 7.586753e-09
1774 6.225267e-04 4.931737e-03 2.646043e-03 2.418425e-03 3.870972e-02 7.750977e-09
1775 6.315286e-04 4.883797e-03 2.544990e-03 2.393386e-03 3.940486e-02 7.913084e-09
1776 6.431383e-04 4.820275e-03 2.436254e-03 2.364717e-03 4.024988e-02 8.071582e-09
1777 6.568625e-04 4.743560e-03 2.319714e-03 2.333019e-03 4.121449e-02 8.224310e-09
1778 6.717302e-04 4.653947e-03 2.198682e-03 2.299021e-03 4.223407e-02 8.369628e-09
1779 6.868339e-04 4.553708e-03 2.078115e-03 2.263000e-03 4.325103e-02 8.504975e-09
1780 7.016666e-04 4.443694e-03 1.961168e-03 2.224908e-03 4.423480e-02 8.629794e-09
1781 7.157301e-04 4.325766e-03 1.852361e-03 2.185215e-03 4.515553e-02 8.740863e-09
1782 7.284041e-04 4.201913e-03 1.757372e-03 2.144480e-03 4.597142e-02 8.836690e-09
1783 7.391959e-04 4.075067e-03 1.683871e-03 2.103160e-03 4.665734e-02 8.915981e-09
1784 7.476573e-04 3.948628e-03 1.638054e-03 2.061463e-03 4.718679e-02 8.977886e-09
1785 7.538965e-04 3.824636e-03 1.624841e-03 2.019742e-03 4.756764e-02 9.022502e-09
1786 7.574969e-04 3.705702e-03 1.646537e-03 1.978473e-03 4.777534e-02 9.045685e-09
1787 7.583935e-04 3.594390e-03 1.702550e-03 1.939526e-03 4.780896e-02 9.049701e-09
1788 7.567705e-04 3.492097e-03 1.788857e-03 1.902745e-03 4.768024e-02 9.035186e-09
1789 7.525692e-04 3.400329e-03 1.900468e-03 1.868353e-03 4.738737e-02 9.004564e-09
1790 7.462165e-04 3.320269e-03 2.029751e-03 1.836792e-03 4.695864e-02 8.958985e-09
1791 7.381819e-04 3.252228e-03 2.169506e-03 1.809000e-03 4.642343e-02 8.898482e-09
1792 7.286021e-04 3.196336e-03 2.312247e-03 1.785904e-03 4.579130e-02 8.825354e-09
1793 7.178974e-04 3.152675e-03 2.453958e-03 1.766845e-03 4.508783e-02 8.741548e-09
1794 7.065539e-04 3.120412e-03 2.590954e-03 1.752030e-03 4.434190e-02 8.649581e-09
1795 6.949433e-04 3.099826e-03 2.720061e-03 1.741829e-03 4.357604e-02 8.549709e-09
1796 6.831614e-04 3.090956e-03 2.841203e-03 1.736148e-03 4.279583e-02 8.448116e-09
1797 6.715659e-04 3.093301e-03 2.951067e-03 1.735318e-03 4.202374e-02 8.347997e-09
1798 6.602990e-04 3.107173e-03 3.045986e-03 1.739421e-03 4.126767e-02 8.250785e-09
1799 6.491365e-04 3.133833e-03 3.124484e-03 1.747980e-03 4.051249e-02 8.158763e-09
1800 6.383060e-04 3.172251e-03 3.185638e-03 1.761496e-03 3.977230e-02 8.071140e-09
1801 6.274856e-04 3.223391e-03 3.227791e-03 1.780160e-03 3.902749e-02 7.995754e-09
1802 6.161086e-04 3.286860e-03 3.249474e-03 1.803045e-03 3.824333e-02 7.928032e-09
1803 6.038200e-04 3.360943e-03 3.253341e-03 1.828711e-03 3.740155e-02 7.865181e-09
1804 5.910690e-04 3.444952e-03 3.240901e-03 1.855293e-03 3.652704e-02 7.816319e-09
1805 5.776844e-04 3.539313e-03 3.214151e-03 1.881049e-03 3.560366e-02 7.784623e-09
1806 5.632563e-04 3.644248e-03 3.173081e-03 1.904494e-03 3.460795e-02 7.769580e-09
1807 5.471366e-04 3.753148e-03 3.121774e-03 1.924513e-03 3.351676e-02 7.769855e-09
1808 5.296181e-04 3.862131e-03 3.056074e-03 1.940108e-03 3.235321e-02 7.784056e-09
1809 5.115218e-04 3.971662e-03 2.981675e-03 1.949884e-03 3.117556e-02 7.812029e-09
1810 4.935182e-04 4.074466e-03 2.902970e-03 1.953638e-03 3.001734e-02 7.851481e-09
1811 4.763714e-04 4.164654e-03 2.820354e-03 1.949819e-03 2.893019e-02 7.897437e-09
1812 4.611501e-04 4.233914e-03 2.733901e-03 1.938099e-03 2.797953e-02 7.941960e-09
1813 4.486085e-04 4.283395e-03 2.647616e-03 1.919534e-03 2.721332e-02 7.982979e-09
1814 4.386089e-04 4.312559e-03 2.561143e-03 1.892557e-03 2.664119e-02 8.020970e-09
1815 4.322292e-04 4.322952e-03 2.477176e-03 1.857328e-03 2.630956e-02 8.046099e-09
1816 4.296390e-04 4.313185e-03 2.396806e-03 1.813088e-03 2.622374e-02 8.057609e-09
1817 4.299232e-04 4.280501e-03 2.319238e-03 1.760004e-03 2.634721e-02 8.064248e-09
1818 4.326938e-04 4.226078e-03 2.245289e-03 1.700847e-03 2.663798e-02 8.065218e-09
1819 4.375314e-04 4.151539e-03 2.175337e-03 1.637617e-03 2.705912e-02 8.055053e-09
1820 4.437485e-04 4.058890e-03 2.107866e-03 1.573973e-03 2.755610e-02 8.036686e-09
1821 4.507429e-04 3.949661e-03 2.044000e-03 1.512342e-03 2.807732e-02 8.011085e-09
1822 4.575510e-04 3.827350e-03 1.984771e-03 1.456299e-03 2.856781e-02 7.969957e-09
1823 4.631763e-04 3.699286e-03 1.932038e-03 1.407768e-03 2.896966e-02 7.915674e-09
1824 4.666899e-04 3.567860e-03 1.884484e-03 1.369865e-03 2.922895e-02 7.848725e-09
1825 4.677179e-04 3.438643e-03 1.843753e-03 1.343680e-03 2.932657e-02 7.779971e-09
1826 4.667923e-04 3.317479e-03 1.811204e-03 1.328660e-03 2.929829e-02 7.710154e-09
1827 4.636796e-04 3.208488e-03 1.786751e-03 1.323201e-03 2.912995e-02 7.635483e-09
1828 4.584561e-04 3.116127e-03 1.769943e-03 1.327642e-03 2.882935e-02 7.562014e-09
1829 4.521411e-04 3.042890e-03 1.760185e-03 1.339863e-03 2.846433e-02 7.483402e-09
1830 4.446500e-04 2.987720e-03 1.756650e-03 1.356888e-03 2.803007e-02 7.402352e-09
1831 4.364510e-04 2.949657e-03 1.757431e-03 1.375881e-03 2.755625e-02 7.332179e-09
1832 4.287314e-04 2.927451e-03 1.762542e-03 1.394277e-03 2.711976e-02 7.274958e-09
1833 4.228965e-04 2.918182e-03 1.771271e-03 1.408407e-03 2.680698e-02 7.228658e-09
1834 4.191218e-04 2.918434e-03 1.782574e-03 1.417656e-03 2.662744e-02 7.190636e-09
1835 4.174290e-04 2.925181e-03 1.794684e-03 1.421260e-03 2.658316e-02 7.158607e-09
1836 4.177705e-04 2.935340e-03 1.806301e-03 1.417884e-03 2.666861e-02 7.130947e-09
1837 4.199607e-04 2.946390e-03 1.817556e-03 1.408999e-03 2.686873e-02 7.108660e-09
1838 4.234379e-04 2.956544e-03 1.827927e-03 1.396389e-03 2.714537e-02 7.089776e-09
1839 4.281866e-04 2.964178e-03 1.836645e-03 1.379668e-03 2.749437e-02 7.072567e-09
1840 4.338712e-04 2.968702e-03 1.842525e-03 1.359472e-03 2.789149e-02 7.056768e-09
1841 4.400797e-04 2.971965e-03 1.847402e-03 1.335496e-03 2.830458e-02 7.042943e-09
1842 4.460034e-04 2.974583e-03 1.852279e-03 1.309873e-03 2.868371e-02 7.029759e-09
1843 4.511063e-04 2.978698e-03 1.855331e-03 1.286258e-03 2.899582e-02 7.014462e-09
1844 4.569371e-04 2.986379e-03 1.848468e-03 1.266659e-03 2.933528e-02 6.997702e-09
1845 4.612541e-04 2.998738e-03 1.830269e-03 1.252709e-03 2.957783e-02 6.978343e-09
1846 4.646108e-04 3.019852e-03 1.802660e-03 1.240794e-03 2.975902e-02 6.960275e-09
1847 4.675658e-04 3.049737e-03 1.764408e-03 1.228839e-03 2.990358e-02 6.943915e-09
1848 4.705238e-04 3.087765e-03 1.715985e-03 1.218548e-03 3.003427e-02 6.926241e-09
1849 4.729796e-04 3.135329e-03 1.658680e-03 1.213690e-03 3.012527e-02 6.897262e-09
1850 4.741657e-04 3.192241e-03 1.593161e-03 1.211325e-03 3.013456e-02 6.866731e-09
1851 4.733690e-04 3.256379e-03 1.520572e-03 1.212519e-03 3.001938e-02 6.835807e-09
1852 4.703408e-04 3.327856e-03 1.443400e-03 1.215119e-03 2.976843e-02 6.801108e-09
1853 4.646555e-04 3.404860e-03 1.365888e-03 1.217339e-03 2.936709e-02 6.756512e-09
1854 4.558699e-04 3.483063e-03 1.290840e-03 1.218440e-03 2.879201e-02 6.709649e-09
1855 4.441195e-04 3.558312e-03 1.222506e-03 1.219676e-03 2.804736e-02 6.658771e-09
1856 4.289020e-04 3.621987e-03 1.166810e-03 1.220997e-03 2.710431e-02 6.602847e-09
1857 4.108238e-04 3.668115e-03 1.125357e-03 1.222224e-03 2.600211e-02 6.543637e-09
1858 3.902839e-04 3.693614e-03 1.099735e-03 1.225041e-03 2.476908e-02 6.484376e-09
1859 3.679008e-04 3.695886e-03 1.089730e-03 1.230129e-03 2.344156e-02 6.431049e-09
1860 3.442383e-04 3.677367e-03 1.090403e-03 1.235993e-03 2.204679e-02 6.388747e-09
1861 3.206104e-04 3.639952e-03 1.097651e-03 1.240105e-03 2.066011e-02 6.348343e-09
1862 2.980466e-04 3.585451e-03 1.107239e-03 1.239109e-03 1.933882e-02 6.327583e-09
1863 2.773845e-04 3.517769e-03 1.113840e-03 1.231373e-03 1.813054e-02 6.317697e-09
1864 2.600614e-04 3.441160e-03 1.114182e-03 1.215065e-03 1.711865e-02 6.341033e-09
1865 2.476099e-04 3.359937e-03 1.106047e-03 1.188966e-03 1.638078e-02 6.398585e-09
1866 2.410226e-04 3.275534e-03 1.087540e-03 1.157933e-03 1.598337e-02 6.482477e-09
1867 2.406523e-04 3.191765e-03 1.061395e-03 1.124253e-03 1.595256e-02 6.585857e-09
1868 2.454842e-04 3.111555e-03 1.029701e-03 1.082461e-03 1.622907e-02 6.701466e-09
1869 2.542357e-04 3.035303e-03 9.957712e-04 1.041399e-03 1.673584e-02 6.821513e-09
1870 2.644390e-04 2.963809e-03 9.656545e-04 9.940434e-04 1.733903e-02 6.936988e-09
1871 2.743601e-04 2.896671e-03 9.449706e-04 9.478729e-04 1.792068e-02 7.039488e-09
1872 2.825975e-04 2.834159e-03 9.385176e-04 9.015846e-04 1.841086e-02 7.124060e-09
1873 2.885214e-04 2.775314e-03 9.459869e-04 8.584448e-04 1.874830e-02 7.184170e-09
1874 2.916616e-04 2.718074e-03 9.630611e-04 8.259797e-04 1.891340e-02 7.220825e-09
1875 2.919565e-04 2.663111e-03 9.876530e-04 7.973527e-04 1.889903e-02 7.239161e-09
1876 2.897327e-04 2.609994e-03 1.014040e-03 7.814741e-04 1.873037e-02 7.244395e-09
1877 2.859009e-04 2.558706e-03 1.035573e-03 7.650546e-04 1.845575e-02 7.245028e-09
1878 2.811810e-04 2.508716e-03 1.048401e-03 7.603277e-04 1.812581e-02 7.244965e-09
1879 2.763503e-04 2.461054e-03 1.047359e-03 7.519016e-04 1.778162e-02 7.249322e-09
1880 2.725464e-04 2.415945e-03 1.031990e-03 7.509310e-04 1.750324e-02 7.261845e-09
1881 2.703608e-04 2.374969e-03 1.004604e-03 7.448154e-04 1.732509e-02 7.280039e-09
1882 2.698056e-04 2.339515e-03 9.716324e-04 7.404135e-04 1.725511e-02 7.303607e-09
1883 2.705418e-04 2.311675e-03 9.386376e-04 7.284686e-04 1.726935e-02 7.327356e-09
1884 2.718725e-04 2.292561e-03 9.140155e-04 7.166649e-04 1.733222e-02 7.351073e-09
1885 2.728363e-04 2.283087e-03 9.039068e-04 7.025001e-04 1.738264e-02 7.371339e-09
1886 2.728936e-04 2.282737e-03 9.118757e-04 6.901784e-04 1.739076e-02 7.384890e-09
1887 2.714452e-04 2.291454e-03 9.363240e-04 6.797244e-04 1.731301e-02 7.389297e-09
1888 2.685554e-04 2.308611e-03 9.720957e-04 6.702492e-04 1.715750e-02 7.384449e-09
1889 2.639865e-04 2.333174e-03 1.011886e-03 6.646033e-04 1.690333e-02 7.370522e-09
1890 2.579581e-04 2.363269e-03 1.048845e-03 6.570996e-04 1.656816e-02 7.350986e-09
1891 2.508079e-04 2.396584e-03 1.076938e-03 6.539548e-04 1.616547e-02 7.329846e-09
1892 2.427166e-04 2.430380e-03 1.092582e-03 6.462148e-04 1.571330e-02 7.310460e-09
1893 2.342629e-04 2.462446e-03 1.093548e-03 6.424908e-04 1.523980e-02 7.296310e-09
1894 2.259231e-04 2.490493e-03 1.080492e-03 6.302292e-04 1.478272e-02 7.287274e-09
1895 2.185261e-04 2.512425e-03 1.056538e-03 6.210961e-04 1.438443e-02 7.281549e-09
1896 2.130094e-04 2.526237e-03 1.025033e-03 6.017985e-04 1.411232e-02 7.275366e-09
1897 2.101411e-04 2.530558e-03 9.905388e-04 5.872367e-04 1.400082e-02 7.264860e-09
1898 2.111793e-04 2.524668e-03 9.576511e-04 5.623345e-04 1.413080e-02 7.246092e-09
1899 2.159701e-04 2.508079e-03 9.291873e-04 5.447419e-04 1.448133e-02 7.216504e-09
1900 2.254198e-04 2.480977e-03 9.066729e-04 5.190540e-04 1.511423e-02 7.177594e-09
1901 2.382214e-04 2.443876e-03 8.902961e-04 5.033511e-04 1.594393e-02 7.130270e-09
1902 2.545068e-04 2.397438e-03 8.778537e-04 4.824231e-04 1.698285e-02 7.078702e-09
1903 2.719085e-04 2.343629e-03 8.674808e-04 4.742825e-04 1.808607e-02 7.026215e-09
1904 2.897374e-04 2.283646e-03 8.586512e-04 4.632859e-04 1.921218e-02 6.977081e-09
1905 3.060553e-04 2.219444e-03 8.505731e-04 4.625132e-04 2.024223e-02 6.934248e-09
1906 3.205600e-04 2.152577e-03 8.429022e-04 4.583550e-04 2.115677e-02 6.899002e-09
1907 3.319897e-04 2.085193e-03 8.349867e-04 4.611479e-04 2.187652e-02 6.875311e-09
1908 3.405252e-04 2.018397e-03 8.273230e-04 4.619300e-04 2.240944e-02 6.862896e-09
1909 3.465799e-04 1.953843e-03 8.207998e-04 4.678230e-04 2.278169e-02 6.859988e-09
1910 3.504128e-04 1.892493e-03 8.144974e-04 4.733669e-04 2.301099e-02 6.865525e-09
1911 3.524536e-04 1.835541e-03 8.073703e-04 4.801466e-04 2.312541e-02 6.877813e-09
1912 3.534070e-04 1.783329e-03 7.992477e-04 4.864317e-04 2.316969e-02 6.894807e-09
1913 3.539191e-04 1.736501e-03 7.906012e-04 4.917149e-04 2.318500e-02 6.913215e-09
1914 3.544403e-04 1.695276e-03 7.814164e-04 4.947281e-04 2.320101e-02 6.930072e-09
1915 3.551574e-04 1.660226e-03 7.707727e-04 4.955102e-04 2.323001e-02 6.944757e-09
1916 3.559106e-04 1.630649e-03 7.585634e-04 4.933337e-04 2.326323e-02 6.956268e-09
1917 3.562989e-04 1.606558e-03 7.440225e-04 4.874872e-04 2.327385e-02 6.966094e-09
1918 3.562693e-04 1.588076e-03 7.271217e-04 4.787599e-04 2.325606e-02 6.974454e-09
1919 3.552810e-04 1.574660e-03 7.073088e-04 4.654670e-04 2.317347e-02 6.981883e-09
1920 3.527970e-04 1.565045e-03 6.857540e-04 4.542655e-04 2.299492e-02 6.987192e-09
1921 3.484849e-04 1.559633e-03 6.606156e-04 4.404493e-04 2.269741e-02 6.990196e-09
1922 3.416344e-04 1.557652e-03 6.320694e-04 4.310579e-04 2.223581e-02 6.990875e-09
1923 3.320921e-04 1.558824e-03 6.026090e-04 4.211119e-04 2.160063e-02 6.990471e-09
1924 3.197693e-04 1.562286e-03 5.756932e-04 4.185580e-04 2.078671e-02 6.988590e-09
1925 3.044803e-04 1.568312e-03 5.540547e-04 4.158175e-04 1.978305e-02 6.985882e-09
1926 2.860960e-04 1.575850e-03 5.403494e-04 4.186665e-04 1.858534e-02 6.981621e-09
1927 2.646499e-04 1.584096e-03 5.357368e-04 4.211303e-04 1.719032e-02 6.978138e-09
1928 2.405597e-04 1.591250e-03 5.385455e-04 4.284129e-04 1.562757e-02 6.975903e-09
1929 2.141161e-04 1.596556e-03 5.469777e-04 4.327705e-04 1.390851e-02 6.977538e-09
1930 1.865140e-04 1.598615e-03 5.578794e-04 4.391699e-04 1.211064e-02 6.983471e-09
1931 1.587774e-04 1.596659e-03 5.684023e-04 4.370740e-04 1.028663e-02 6.994036e-09
1932 1.318796e-04 1.588225e-03 5.748694e-04 4.389456e-04 8.496268e-03 7.009997e-09
1933 1.086372e-04 1.573587e-03 5.755295e-04 4.289644e-04 6.885467e-03 7.031809e-09
1934 9.221184e-05 1.551494e-03 5.703897e-04 4.265393e-04 5.661147e-03 7.058226e-09
1935 8.714294e-05 1.523088e-03 5.597099e-04 4.153508e-04 5.125390e-03 7.087578e-09
1936 9.291660e-05 1.488324e-03 5.448878e-04 4.083946e-04 5.344985e-03 7.120252e-09
1937 1.072977e-04 1.449449e-03 5.268581e-04 3.954008e-04 6.178632e-03 7.154170e-09
1938 1.242402e-04 1.407280e-03 5.081397e-04 3.879834e-04 7.230996e-03 7.188293e-09
1939 1.420273e-04 1.364753e-03 4.913195e-04 3.767455e-04 8.336733e-03 7.221227e-09
1940 1.576515e-04 1.324104e-03 4.781790e-04 3.696706e-04 9.314269e-03 7.252213e-09
1941 1.713364e-04 1.288499e-03 4.701146e-04 3.632554e-04 1.015951e-02 7.280357e-09
1942 1.816968e-04 1.259666e-03 4.678559e-04 3.596926e-04 1.079852e-02 7.306960e-09
1943 1.895723e-04 1.239471e-03 4.709429e-04 3.579630e-04 1.127050e-02 7.331811e-09
1944 1.944142e-04 1.228417e-03 4.760355e-04 3.586883e-04 1.155324e-02 7.355934e-09
1945 1.975378e-04 1.225624e-03 4.820385e-04 3.612195e-04 1.172009e-02 7.379428e-09
1946 1.979183e-04 1.229690e-03 4.871785e-04 3.618630e-04 1.172065e-02 7.403072e-09
1947 1.965911e-04 1.238969e-03 4.896270e-04 3.622860e-04 1.160700e-02 7.425297e-09
1948 1.932691e-04 1.251563e-03 4.882444e-04 3.579143e-04 1.137497e-02 7.447290e-09
1949 1.891951e-04 1.265079e-03 4.829672e-04 3.553628e-04 1.109349e-02 7.467601e-09
1950 1.839230e-04 1.277741e-03 4.744862e-04 3.487971e-04 1.074858e-02 7.486569e-09
1951 1.780428e-04 1.288112e-03 4.636415e-04 3.443349e-04 1.036583e-02 7.504101e-09
1952 1.710961e-04 1.295150e-03 4.522046e-04 3.356094e-04 9.930374e-03 7.519006e-09
1953 1.635491e-04 1.297813e-03 4.419682e-04 3.306899e-04 9.457403e-03 7.531616e-09
1954 1.552521e-04 1.296155e-03 4.328389e-04 3.231262e-04 8.950304e-03 7.542904e-09
1955 1.464975e-04 1.289558e-03 4.259892e-04 3.210232e-04 8.413685e-03 7.553760e-09
1956 1.373209e-04 1.278277e-03 4.219309e-04 3.167642e-04 7.865062e-03 7.565135e-09
1957 1.284474e-04 1.261670e-03 4.202738e-04 3.169159e-04 7.332042e-03 7.578435e-09
1958 1.201132e-04 1.240266e-03 4.191123e-04 3.149131e-04 6.849890e-03 7.594842e-09
1959 1.131066e-04 1.214265e-03 4.173716e-04 3.153067e-04 6.451630e-03 7.614907e-09