TITLE     = "tecplot geometry and solution file"
VARIABLES = "x"
"y"
"z"
"cp"
"cf_x"
ZONE T="Slice: Y=-0.001"
 STRANDID=0, SOLUTIONTIME=0
 Nodes=524, Elements=522, ZONETYPE=FELineSeg
 DATAPACKING=POINT
 DT=(SINGLE SINGLE SINGLE SINGLE SINGLE )
 -2.462019324E-01 -1.000000047E-03 4.341204464E-02 -6.443216801E-01 2.154838527E-03
 -2.462188601E-01 -1.000000047E-03 4.330905154E-02 -6.425474286E-01 1.979098888E-03
 7.386057973E-01 -1.000000047E-03 -1.302361339E-01 4.259818196E-01 4.616617691E-03
 7.384002209E-01 -1.000000047E-03 -1.302299052E-01 4.541632831E-01 4.165673628E-03
 7.380738854E-01 -1.000000047E-03 -1.302200258E-01 4.785584509E-01 3.211321076E-03
 7.376657724E-01 -1.000000047E-03 -1.302076429E-01 4.784511924E-01 2.578674350E-03
 7.374235392E-01 -1.000000047E-03 -1.302002817E-01 4.624074399E-01 2.123065758E-03
 7.372527122E-01 -1.000000047E-03 -1.301950961E-01 4.586626589E-01 2.134676324E-03
 7.365037799E-01 -1.000000047E-03 -1.301722527E-01 4.652980566E-01 2.043075394E-03
 7.362627983E-01 -1.000000047E-03 -1.301648766E-01 4.611136019E-01 2.066652756E-03
 7.353491783E-01 -1.000000047E-03 -1.301368177E-01 4.610116482E-01 2.078562276E-03
 7.350505590E-01 -1.000000047E-03 -1.301276088E-01 4.587103128E-01 2.085462213E-03
 7.337707877E-01 -1.000000047E-03 -1.300879568E-01 4.551831484E-01 2.141432138E-03
 7.333903909E-01 -1.000000047E-03 -1.300761253E-01 4.514602721E-01 2.146127401E-03
 7.316917777E-01 -1.000000047E-03 -1.300229132E-01 4.462679923E-01 2.222449984E-03
 7.313006520E-01 -1.000000047E-03 -1.300106049E-01 4.491546154E-01 2.232936677E-03
 7.289116979E-01 -1.000000047E-03 -1.299347430E-01 4.622482955E-01 2.301055705E-03
 7.284724712E-01 -1.000000047E-03 -1.299207062E-01 4.574579597E-01 2.314153593E-03
 7.252341509E-01 -1.000000047E-03 -1.298159957E-01 4.548833966E-01 2.376270248E-03
 7.249436975E-01 -1.000000047E-03 -1.298065335E-01 4.583113790E-01 2.377637429E-03
 7.199731469E-01 -1.000000047E-03 -1.296419352E-01 4.675126672E-01 2.448351122E-03
 7.199273705E-01 -1.000000047E-03 -1.296404004E-01 4.670310915E-01 2.448709682E-03
 7.196388841E-01 -1.000000047E-03 -1.296305209E-01 4.680477679E-01 2.455990762E-03
 7.130733132E-01 -1.000000047E-03 -1.294060498E-01 4.600231051E-01 2.575672464E-03
 7.032037377E-01 -1.000000047E-03 -1.290533543E-01 4.530439377E-01 2.764385194E-03
 7.118181586E-01 -1.000000047E-03 -1.293622106E-01 4.594333470E-01 2.599619795E-03
 -2.440836877E-01 -1.000000047E-03 3.175906092E-02 7.002628446E-01 -1.982802060E-03
 -2.438980341E-01 -1.000000047E-03 3.140568361E-02 7.231891751E-01 -1.935666427E-03
 -2.443069965E-01 -1.000000047E-03 3.220245987E-02 6.750400066E-01 -2.027956536E-03
 -2.441288382E-01 -1.000000047E-03 3.184701130E-02 6.946692467E-01 -1.991924597E-03
 -2.445251197E-01 -1.000000047E-03 3.265775740E-02 6.422852874E-01 -2.070770133E-03
 -2.443536371E-01 -1.000000047E-03 3.229784593E-02 6.686013937E-01 -2.036684891E-03
 -2.447303385E-01 -1.000000047E-03 3.310961649E-02 6.119492054E-01 -2.093596384E-03
 -2.445666641E-01 -1.000000047E-03 3.274725750E-02 6.358902454E-01 -2.074539429E-03
 -2.449293584E-01 -1.000000047E-03 3.357354552E-02 5.741383433E-01 -2.111684764E-03
 -2.447730005E-01 -1.000000047E-03 3.320677578E-02 6.044853330E-01 -2.096596174E-03
 -2.451150119E-01 -1.000000047E-03 3.403378278E-02 5.384222865E-01 -2.109926660E-03
 -2.449670583E-01 -1.000000047E-03 3.366470709E-02 5.666867495E-01 -2.110157162E-03
 -2.463501096E-01 -1.000000047E-03 4.235803708E-02 -4.951619506E-01 1.349462429E-03
 -2.463860959E-01 -1.000000047E-03 4.197359085E-02 -4.390102029E-01 1.045667217E-03
 -2.463387251E-01 -1.000000047E-03 4.246181995E-02 -5.114418268E-01 1.446602284E-03
 -2.462940365E-01 -1.000000047E-03 4.282049462E-02 -5.641100407E-01 1.758608036E-03
 -2.452933490E-01 -1.000000047E-03 3.450603783E-02 4.948889613E-01 -2.101140097E-03
 -2.451533824E-01 -1.000000047E-03 3.413270041E-02 5.298702717E-01 -2.106878441E-03
 -2.454578578E-01 -1.000000047E-03 3.497424349E-02 4.535883367E-01 -2.067710040E-03
 -2.453269064E-01 -1.000000047E-03 3.459879383E-02 4.864049852E-01 -2.092696726E-03
 -2.464234978E-01 -1.000000047E-03 4.137440026E-02 -3.520022333E-01 5.726905074E-04
 -2.464358658E-01 -1.000000047E-03 4.097637907E-02 -2.930392325E-01 3.009875654E-04
 -2.463944703E-01 -1.000000047E-03 4.186627641E-02 -4.236901402E-01 9.553778218E-04
 -2.464188933E-01 -1.000000047E-03 4.147299007E-02 -3.666693866E-01 6.527520018E-04
 -2.456138134E-01 -1.000000047E-03 3.545434773E-02 4.044698775E-01 -2.022931585E-03
 -2.454915941E-01 -1.000000047E-03 3.507482633E-02 4.439162016E-01 -2.056201920E-03
 -2.457554489E-01 -1.000000047E-03 3.592996672E-02 3.564092517E-01 -1.948910765E-03
 -2.456429005E-01 -1.000000047E-03 3.554859385E-02 3.947653472E-01 -2.005800372E-03
 -2.458872050E-01 -1.000000047E-03 3.641725704E-02 3.019649982E-01 -1.860315911E-03
 -2.457841784E-01 -1.000000047E-03 3.603207693E-02 3.452594876E-01 -1.928494312E-03
 -2.460041195E-01 -1.000000047E-03 3.689954057E-02 2.479740381E-01 -1.737202285E-03
 -2.459114492E-01 -1.000000047E-03 3.651284426E-02 2.909331322E-01 -1.833636430E-03
 -2.464359850E-01 -1.000000047E-03 4.037433118E-02 -2.083926648E-01 -1.156180588E-04
 -2.464237958E-01 -1.000000047E-03 3.997576237E-02 -1.506745815E-01 -3.518235171E-04
 -2.464375049E-01 -1.000000047E-03 4.087040573E-02 -2.781199217E-01 2.241661568E-04
 -2.464374900E-01 -1.000000047E-03 4.047282413E-02 -2.226599455E-01 -4.530878141E-05
 -2.461097538E-01 -1.000000047E-03 3.739314154E-02 1.878331900E-01 -1.595359645E-03
 -2.460274398E-01 -1.000000047E-03 3.700299934E-02 2.360066921E-01 -1.705434290E-03
 -2.462000400E-01 -1.000000047E-03 3.788109496E-02 1.296462417E-01 -1.413990278E-03
 -2.461287826E-01 -1.000000047E-03 3.748987988E-02 1.755760461E-01 -1.557297190E-03
 -2.463870794E-01 -1.000000047E-03 3.937472031E-02 -6.960812211E-02 -7.132175961E-04
 -2.463506609E-01 -1.000000047E-03 3.897763416E-02 -1.349247433E-02 -9.139353060E-04
 -2.464189380E-01 -1.000000047E-03 3.986989707E-02 -1.359803826E-01 -4.185989383E-04
 -2.463945895E-01 -1.000000047E-03 3.947296739E-02 -8.315733075E-02 -6.515602581E-04
 -2.462776303E-01 -1.000000047E-03 3.837986290E-02 6.433930248E-02 -1.212703530E-03
 -2.462175488E-01 -1.000000047E-03 3.798567504E-02 1.171269566E-01 -1.368293073E-03
 -2.463393658E-01 -1.000000047E-03 3.887223080E-02 4.407329834E-04 -9.713657200E-04
 -2.462910414E-01 -1.000000047E-03 3.847751021E-02 5.138230696E-02 -1.161851222E-03
 -2.438475341E-01 -1.000000047E-03 3.131172061E-02 7.286777496E-01 -1.922189374E-03
 -2.436552942E-01 -1.000000047E-03 3.096182831E-02 7.450442314E-01 -1.875197282E-03
 -2.436064631E-01 -1.000000047E-03 3.087480925E-02 7.503404021E-01 -1.861620345E-03
 -2.434056550E-01 -1.000000047E-03 3.052440286E-02 7.705590725E-01 -1.802102663E-03
 -2.433509678E-01 -1.000000047E-03 3.043087758E-02 7.754220963E-01 -1.784886001E-03
 -2.431417108E-01 -1.000000047E-03 3.008019552E-02 7.914400101E-01 -1.719003310E-03
 -2.430884391E-01 -1.000000047E-03 2.999259904E-02 7.958570719E-01 -1.703329501E-03
 -2.428658158E-01 -1.000000047E-03 2.963367105E-02 8.119940758E-01 -1.638732734E-03
 -2.428046614E-01 -1.000000047E-03 2.953689173E-02 8.151007295E-01 -1.621283707E-03
 -2.425680757E-01 -1.000000047E-03 2.916967683E-02 8.272451758E-01 -1.565846615E-03
 -2.462781668E-01 -1.000000047E-03 4.293444380E-02 -5.878893733E-01 1.800052938E-03
 -2.425070256E-01 -1.000000047E-03 2.907659858E-02 8.326321244E-01 -1.546173007E-03
 -2.422512770E-01 -1.000000047E-03 2.869406901E-02 8.502699733E-01 -1.474987715E-03
 -2.421806902E-01 -1.000000047E-03 2.859036438E-02 8.534666300E-01 -1.454227953E-03
 -2.419079840E-01 -1.000000047E-03 2.819716372E-02 8.641186357E-01 -1.390950405E-03
 -2.418377399E-01 -1.000000047E-03 2.809761651E-02 8.682603836E-01 -1.373413950E-03
 -2.415437549E-01 -1.000000047E-03 2.768861502E-02 8.846022487E-01 -1.300255419E-03
 -2.414628565E-01 -1.000000047E-03 2.757797576E-02 8.877637982E-01 -1.285575563E-03
 -2.411511987E-01 -1.000000047E-03 2.715948783E-02 8.974047303E-01 -1.221085084E-03
 -2.410713434E-01 -1.000000047E-03 2.705404349E-02 9.009559751E-01 -1.214202144E-03
 -2.407370061E-01 -1.000000047E-03 2.662052028E-02 9.108225703E-01 -1.155278995E-03
 -2.406447679E-01 -1.000000047E-03 2.650295012E-02 9.145797491E-01 -1.144694863E-03
 -2.402915359E-01 -1.000000047E-03 2.606077492E-02 9.201105237E-01 -1.077681081E-03
 -2.402010560E-01 -1.000000047E-03 2.594939806E-02 9.266078472E-01 -1.053236076E-03
 -2.398236245E-01 -1.000000047E-03 2.549299225E-02 9.373967052E-01 -9.568636306E-04
 -2.397203892E-01 -1.000000047E-03 2.537022717E-02 9.361314774E-01 -9.323602426E-04
 -2.393202782E-01 -1.000000047E-03 2.490284666E-02 9.506622553E-01 -8.315019659E-04
 -2.392175645E-01 -1.000000047E-03 2.478480525E-02 9.537247419E-01 -8.069486357E-04
 -2.387832701E-01 -1.000000047E-03 2.429453470E-02 9.587159157E-01 -6.885509356E-04
 -2.386633456E-01 -1.000000047E-03 2.416137047E-02 9.597797990E-01 -6.556335720E-04
 -2.381974161E-01 -1.000000047E-03 2.365323529E-02 9.635216594E-01 -5.507486640E-04
 -2.380770892E-01 -1.000000047E-03 2.352412604E-02 9.639264941E-01 -5.215468700E-04
 -2.375697047E-01 -1.000000047E-03 2.298931219E-02 9.715520144E-01 -4.181494296E-04
 -2.374296784E-01 -1.000000047E-03 2.284412459E-02 9.728513360E-01 -3.857446427E-04
 -2.368871719E-01 -1.000000047E-03 2.229145914E-02 9.764824510E-01 -2.762878139E-04
 -2.367472798E-01 -1.000000047E-03 2.215120196E-02 9.780769348E-01 -2.509730111E-04
 -2.361569107E-01 -1.000000047E-03 2.156943642E-02 9.817110896E-01 -1.463415392E-04
 -2.359930128E-01 -1.000000047E-03 2.141048014E-02 9.784676433E-01 -1.243470178E-04
 -2.353605777E-01 -1.000000047E-03 2.080765553E-02 9.802834392E-01 -2.651380964E-05
 -2.351959050E-01 -1.000000047E-03 2.065316588E-02 9.817315936E-01 3.283675369E-06
 -2.345093489E-01 -1.000000047E-03 2.002027445E-02 9.820108414E-01 1.235712407E-04
 -2.343190163E-01 -1.000000047E-03 1.984766684E-02 9.804374576E-01 1.575609931E-04
 -2.335874438E-01 -1.000000047E-03 1.919587329E-02 9.754225612E-01 2.609605144E-04
 -2.333984077E-01 -1.000000047E-03 1.903015934E-02 9.758918285E-01 2.915199148E-04
 -2.326061428E-01 -1.000000047E-03 1.834782213E-02 9.768180251E-01 4.046811664E-04
 -2.323880494E-01 -1.000000047E-03 1.816304959E-02 9.747221470E-01 4.363241605E-04
 -2.315410525E-01 -1.000000047E-03 1.745810546E-02 9.711465240E-01 5.453485064E-04
 -2.313230038E-01 -1.000000047E-03 1.727950573E-02 9.710065126E-01 5.726911477E-04
 -2.303895652E-01 -1.000000047E-03 1.652862132E-02 9.676040411E-01 6.856232649E-04
 -2.301286161E-01 -1.000000047E-03 1.632207818E-02 9.646255970E-01 7.143881521E-04
 -2.291131020E-01 -1.000000047E-03 1.553280093E-02 9.557709694E-01 8.087080205E-04
 -2.288461179E-01 -1.000000047E-03 1.532858890E-02 9.545430541E-01 8.351809229E-04
 -2.277254611E-01 -1.000000047E-03 1.448675338E-02 9.489099383E-01 9.391870117E-04
 -2.274106592E-01 -1.000000047E-03 1.425416768E-02 9.464285970E-01 9.693724569E-04
 -2.262069732E-01 -1.000000047E-03 1.338102296E-02 9.362382293E-01 1.063997974E-03
 -2.258906215E-01 -1.000000047E-03 1.315533742E-02 9.335374832E-01 1.089506433E-03
 -2.245802581E-01 -1.000000047E-03 1.223765407E-02 9.273962379E-01 1.190951210E-03
 -2.242134362E-01 -1.000000047E-03 1.198508311E-02 9.255040884E-01 1.222679624E-03
 -2.228084207E-01 -1.000000047E-03 1.103562582E-02 9.151391387E-01 1.319427975E-03
 -2.224383950E-01 -1.000000047E-03 1.078969333E-02 9.116083980E-01 1.349271624E-03
 -2.208839953E-01 -1.000000047E-03 9.775939398E-03 9.019870162E-01 1.436988940E-03
 -2.204470187E-01 -1.000000047E-03 9.495701641E-03 9.004650116E-01 1.460568863E-03
 -2.187499851E-01 -1.000000047E-03 8.427836932E-03 8.909173608E-01 1.555245486E-03
 -2.183168083E-01 -1.000000047E-03 8.159704506E-03 8.868076801E-01 1.577156014E-03
 -2.164104283E-01 -1.000000047E-03 7.002415136E-03 8.699941635E-01 1.673478168E-03
 -2.159209847E-01 -1.000000047E-03 6.710332818E-03 8.658097386E-01 1.694706501E-03
 -2.137997001E-01 -1.000000047E-03 5.469654221E-03 8.437945247E-01 1.732030069E-03
 -2.133956105E-01 -1.000000047E-03 5.237461999E-03 8.409150243E-01 1.744911657E-03
 7.017347217E-01 -1.000000047E-03 -1.290008277E-01 4.475755095E-01 2.788393758E-03
 7.013435960E-01 -1.000000047E-03 -1.289863586E-01 4.447508752E-01 2.789897146E-03
 6.899268031E-01 -1.000000047E-03 -1.285549998E-01 4.422598481E-01 2.855926519E-03
 6.877116561E-01 -1.000000047E-03 -1.284686625E-01 4.430861771E-01 2.845971612E-03
 6.761615872E-01 -1.000000047E-03 -1.280059218E-01 4.252555668E-01 2.762218006E-03
 4.834384620E-01 -1.000000047E-03 -1.173084229E-01 3.588770330E-01 1.081469934E-03
 4.695969522E-01 -1.000000047E-03 -1.163354963E-01 3.574342728E-01 1.077426714E-03
 4.877042472E-01 -1.000000047E-03 -1.176028028E-01 3.587573469E-01 1.085802796E-03
 5.016385913E-01 -1.000000047E-03 -1.185463220E-01 3.608877361E-01 1.087248675E-03
 6.050771475E-01 -1.000000047E-03 -1.246939376E-01 3.833712041E-01 1.539391582E-03
 6.189737916E-01 -1.000000047E-03 -1.254021972E-01 3.881063461E-01 1.757850405E-03
 6.002787352E-01 -1.000000047E-03 -1.244427115E-01 3.839176595E-01 1.472050790E-03
 5.862509012E-01 -1.000000047E-03 -1.236889139E-01 3.683705330E-01 1.328397775E-03
 6.239996552E-01 -1.000000047E-03 -1.256510764E-01 3.791109622E-01 1.842822763E-03
 6.377325654E-01 -1.000000047E-03 -1.263122559E-01 4.023769796E-01 2.088888781E-03
 6.726335883E-01 -1.000000047E-03 -1.278602779E-01 4.231710434E-01 2.696712967E-03
 6.602283120E-01 -1.000000047E-03 -1.273318380E-01 4.075945318E-01 2.500183182E-03
 4.647887051E-01 -1.000000047E-03 -1.159910634E-01 3.571840227E-01 1.074084546E-03
 4.509762526E-01 -1.000000047E-03 -1.149834767E-01 3.557975292E-01 1.082567382E-03
 5.066792369E-01 -1.000000047E-03 -1.188808903E-01 3.612867594E-01 1.098453882E-03
 5.207855701E-01 -1.000000047E-03 -1.197984070E-01 3.630888760E-01 1.114789164E-03
 6.556708217E-01 -1.000000047E-03 -1.271318048E-01 4.073986709E-01 2.404319355E-03
 6.423490644E-01 -1.000000047E-03 -1.265277267E-01 3.982486725E-01 2.176095499E-03
 5.807469487E-01 -1.000000047E-03 -1.233852729E-01 3.687236905E-01 1.291036024E-03
 5.666060448E-01 -1.000000047E-03 -1.225854233E-01 3.719318211E-01 1.229471993E-03
 4.053138793E-01 -1.000000047E-03 -1.114544570E-01 3.533981144E-01 1.136480947E-03
 3.917075098E-01 -1.000000047E-03 -1.103425026E-01 3.533156514E-01 1.153089339E-03
 3.855181932E-01 -1.000000047E-03 -1.098272651E-01 3.532699943E-01 1.157589257E-03
 3.717124164E-01 -1.000000047E-03 -1.086562946E-01 3.533664942E-01 1.194639946E-03
 4.455658197E-01 -1.000000047E-03 -1.145811900E-01 3.554409146E-01 1.086985809E-03
 4.316401184E-01 -1.000000047E-03 -1.135265231E-01 3.545464277E-01 1.093604486E-03
 5.263693333E-01 -1.000000047E-03 -1.201537177E-01 3.633514643E-01 1.126930234E-03
 5.407865047E-01 -1.000000047E-03 -1.210513636E-01 3.682640195E-01 1.155171194E-03
 5.608354807E-01 -1.000000047E-03 -1.222506613E-01 3.717340529E-01 1.204972970E-03
 5.464187860E-01 -1.000000047E-03 -1.213939935E-01 3.668945432E-01 1.171933603E-03
 4.116038382E-01 -1.000000047E-03 -1.119589359E-01 3.533521891E-01 1.120234374E-03
 4.253127873E-01 -1.000000047E-03 -1.130378321E-01 3.541661501E-01 1.099928166E-03
 3.666839898E-01 -1.000000047E-03 -1.082222760E-01 3.532600403E-01 1.193805016E-03
 -2.110002190E-01 -1.000000047E-03 3.887719009E-03 8.394191861E-01 1.836201409E-03
 -2.104903609E-01 -1.000000047E-03 3.605643986E-03 8.396841288E-01 1.854978618E-03
 -2.079081684E-01 -1.000000047E-03 2.205476630E-03 8.209367990E-01 1.962636830E-03
 -2.072534859E-01 -1.000000047E-03 1.856920077E-03 8.114437461E-01 1.982286805E-03
 -2.044918537E-01 -1.000000047E-03 4.163529375E-04 8.000355363E-01 2.033202210E-03
 -2.037235498E-01 -1.000000047E-03 2.290098018E-05 7.954508662E-01 2.052412834E-03
 -2.007027715E-01 -1.000000047E-03 -1.491492963E-03 7.770313621E-01 2.087520435E-03
 -1.999057829E-01 -1.000000047E-03 -1.883640653E-03 7.743440270E-01 2.102304716E-03
 -1.965483278E-01 -1.000000047E-03 -3.500477644E-03 7.599879503E-01 2.138402779E-03
 -1.955996156E-01 -1.000000047E-03 -3.948785365E-03 7.537452579E-01 2.140490338E-03
 -1.918836087E-01 -1.000000047E-03 -5.666185170E-03 7.399225831E-01 2.141897101E-03
 -1.908821017E-01 -1.000000047E-03 -6.120216101E-03 7.331752181E-01 2.140020952E-03
 -1.866827905E-01 -1.000000047E-03 -7.980581373E-03 7.193607092E-01 2.132577822E-03
 -1.854626983E-01 -1.000000047E-03 -8.510307409E-03 7.135804296E-01 2.129613655E-03
 -1.807918549E-01 -1.000000047E-03 -1.048976649E-02 6.965011358E-01 2.100698417E-03
 -1.795124263E-01 -1.000000047E-03 -1.102085039E-02 6.924157739E-01 2.090916270E-03
 -1.743074059E-01 -1.000000047E-03 -1.313005667E-02 6.760683656E-01 2.061168430E-03
 -1.728143841E-01 -1.000000047E-03 -1.372226700E-02 6.704205871E-01 2.043302869E-03
 -1.670879424E-01 -1.000000047E-03 -1.593741402E-02 6.546856165E-01 1.988509670E-03
 -1.655215025E-01 -1.000000047E-03 -1.653029583E-02 6.495483518E-01 1.964342780E-03
 -1.591151655E-01 -1.000000047E-03 -1.889440045E-02 6.356429458E-01 1.911572996E-03
 -1.572542489E-01 -1.000000047E-03 -1.956593059E-02 6.308372617E-01 1.881405478E-03
 -1.501514763E-01 -1.000000047E-03 -2.206144296E-02 6.152370572E-01 1.826975262E-03
 -1.481971443E-01 -1.000000047E-03 -2.273252234E-02 6.088696122E-01 1.797398669E-03
 -1.401460469E-01 -1.000000047E-03 -2.542180009E-02 5.927845240E-01 1.748522860E-03
 -1.378574222E-01 -1.000000047E-03 -2.616841160E-02 5.885424018E-01 1.716252416E-03
 -1.288411170E-01 -1.000000047E-03 -2.902498282E-02 5.713595748E-01 1.690781559E-03
 -1.266497523E-01 -1.000000047E-03 -2.970246039E-02 5.667958260E-01 1.668012235E-03
 -1.165768430E-01 -1.000000047E-03 -3.272666410E-02 5.493631959E-01 1.659333473E-03
 -1.138263866E-01 -1.000000047E-03 -3.353159130E-02 5.449464321E-01 1.639223192E-03
 -1.028696373E-01 -1.000000047E-03 -3.664053604E-02 5.313147306E-01 1.657788525E-03
 -5.193750560E-02 -1.000000047E-03 -4.951145500E-02 4.746100008E-01 1.626144862E-03
 -3.858056292E-02 -1.000000047E-03 -5.252632499E-02 4.629758894E-01 1.622689422E-03
 -6.863248348E-02 -1.000000047E-03 -4.554938525E-02 4.904117286E-01 1.636857400E-03
 -5.564141273E-02 -1.000000047E-03 -4.865144938E-02 4.777597487E-01 1.623576740E-03
 -9.990128130E-02 -1.000000047E-03 -3.746082261E-02 5.269117951E-01 1.645931508E-03
 -8.796080202E-02 -1.000000047E-03 -4.066022858E-02 5.116593838E-01 1.650163904E-03
 -8.452915400E-02 -1.000000047E-03 -4.155458510E-02 5.076499581E-01 1.641965704E-03
 -7.199195027E-02 -1.000000047E-03 -4.472353309E-02 4.938577712E-01 1.645245356E-03
 2.250043452E-01 -1.000000047E-03 -9.411421418E-02 3.629157841E-01 1.277155825E-03
 2.103314698E-01 -1.000000047E-03 -9.241416305E-02 3.651556671E-01 1.288428088E-03
 2.293203622E-01 -1.000000047E-03 -9.460427612E-02 3.622760177E-01 1.274619019E-03
 2.431281507E-01 -1.000000047E-03 -9.614435583E-02 3.610266447E-01 1.255961601E-03
 -3.489486501E-02 -1.000000047E-03 -5.333546922E-02 4.598398805E-01 1.614786335E-03
 -2.115307190E-02 -1.000000047E-03 -5.627080053E-02 4.509604275E-01 1.599944080E-03
 -1.677600108E-02 -1.000000047E-03 -5.718010291E-02 4.480685592E-01 1.597551978E-03
 -2.711695153E-03 -1.000000047E-03 -6.002224982E-02 4.389128089E-01 1.592624933E-03
 1.714097410E-01 -1.000000047E-03 -8.764243126E-02 3.726876974E-01 1.339459093E-03
 1.864073426E-01 -1.000000047E-03 -8.952821046E-02 3.695272803E-01 1.314160880E-03
 1.671960205E-01 -1.000000047E-03 -8.710131049E-02 3.735970557E-01 1.341478317E-03
 1.522025615E-01 -1.000000047E-03 -8.513460308E-02 3.768908679E-01 1.353582134E-03
 3.882383928E-02 -1.000000047E-03 -6.777494401E-02 4.161073565E-01 1.497916761E-03
 5.257972330E-02 -1.000000047E-03 -7.015367597E-02 4.095110297E-01 1.478729537E-03
 3.434782848E-02 -1.000000047E-03 -6.698178500E-02 4.185680449E-01 1.506180037E-03
 2.039233036E-02 -1.000000047E-03 -6.444583088E-02 4.261956811E-01 1.558355754E-03
 1.090634614E-01 -1.000000047E-03 -7.908668369E-02 3.888710141E-01 1.403723261E-03
 9.460329264E-02 -1.000000047E-03 -7.691774517E-02 3.941743076E-01 1.416971092E-03
 1.135114804E-01 -1.000000047E-03 -7.973895222E-02 3.875388205E-01 1.399477478E-03
 1.281186938E-01 -1.000000047E-03 -8.183269203E-02 3.837123215E-01 1.376247150E-03
 3.531092703E-01 -1.000000047E-03 -1.070297360E-01 3.532766700E-01 1.207133755E-03
 3.481164873E-01 -1.000000047E-03 -1.065833569E-01 3.532565236E-01 1.217172015E-03
 3.351702392E-01 -1.000000047E-03 -1.054066643E-01 3.534442782E-01 1.222886611E-03
 2.058721632E-01 -1.000000047E-03 -9.188728780E-02 3.659315705E-01 1.291569206E-03
 1.910076588E-01 -1.000000047E-03 -9.009454399E-02 3.687179685E-01 1.306433231E-03
 1.477013826E-01 -1.000000047E-03 -8.453112841E-02 3.780862093E-01 1.358989859E-03
 1.328948736E-01 -1.000000047E-03 -8.250217140E-02 3.823426068E-01 1.371678081E-03
 8.986890316E-02 -1.000000047E-03 -7.619068027E-02 3.958150148E-01 1.420199056E-03
 7.531308383E-02 -1.000000047E-03 -7.390209287E-02 4.009687603E-01 1.456961036E-03
 5.682169646E-02 -1.000000047E-03 -7.086998969E-02 4.077317119E-01 1.467517810E-03
 7.115094364E-02 -1.000000047E-03 -7.323192060E-02 4.025042057E-01 1.457519596E-03
 1.621532813E-02 -1.000000047E-03 -6.366736442E-02 4.282456040E-01 1.565439859E-03
 1.735050231E-03 -1.000000047E-03 -6.089636683E-02 4.361945689E-01 1.582298311E-03
 2.482642680E-01 -1.000000047E-03 -9.670585394E-02 3.603264689E-01 1.256356714E-03
 2.612986565E-01 -1.000000047E-03 -9.810680896E-02 3.584347367E-01 1.249197987E-03
 3.297401667E-01 -1.000000047E-03 -1.049039438E-01 3.536598384E-01 1.224069158E-03
 3.179406226E-01 -1.000000047E-03 -1.037953198E-01 3.540697098E-01 1.229188521E-03
 2.670474052E-01 -1.000000047E-03 -9.871243685E-02 3.579704762E-01 1.247231383E-03
 2.792639732E-01 -1.000000047E-03 -9.997913986E-02 3.572019935E-01 1.250648173E-03
 3.122572005E-01 -1.000000047E-03 -1.032515466E-01 3.545008004E-01 1.237173681E-03
 3.012978137E-01 -1.000000047E-03 -1.021878570E-01 3.551519811E-01 1.248409040E-03
 2.848359644E-01 -1.000000047E-03 -1.005462036E-01 3.562913239E-01 1.254113740E-03
 2.958936095E-01 -1.000000047E-03 -1.016546711E-01 3.553574383E-01 1.245274092E-03
 -2.462019324E-01 -1.000000047E-03 4.341204464E-02 -6.443216801E-01 2.503194148E-03
 -2.461826354E-01 -1.000000047E-03 4.351454973E-02 -6.769177318E-01 2.413890557E-03
 7.386057973E-01 -1.000000047E-03 -1.302361339E-01 4.259818196E-01 2.866283758E-03
 7.384444475E-01 -1.000000047E-03 -1.301828921E-01 4.335386455E-01 2.587368246E-03
 7.381103039E-01 -1.000000047E-03 -1.300726086E-01 4.311761856E-01 1.783156069E-03
 7.376689911E-01 -1.000000047E-03 -1.299269795E-01 4.395990074E-01 9.856703691E-04
 7.374836206E-01 -1.000000047E-03 -1.298658103E-01 4.354187846E-01 6.072650431E-04
 7.373283505E-01 -1.000000047E-03 -1.298145950E-01 4.358167052E-01 5.253182608E-04
 7.366073132E-01 -1.000000047E-03 -1.295767874E-01 4.325304329E-01 1.102847891E-04
 7.363828421E-01 -1.000000047E-03 -1.295027584E-01 4.327208102E-01 5.553759547E-05
 7.355093956E-01 -1.000000047E-03 -1.292148978E-01 4.412039518E-01 -5.933375360E-05
 7.352295518E-01 -1.000000047E-03 -1.291227043E-01 4.362306297E-01 -8.577153494E-05
 7.340105176E-01 -1.000000047E-03 -1.287212968E-01 4.429038167E-01 -1.026096870E-04
 7.336498499E-01 -1.000000047E-03 -1.286026090E-01 4.421319366E-01 -1.033171648E-04
 7.320356965E-01 -1.000000047E-03 -1.280717105E-01 4.474427104E-01 -7.939075294E-05
 7.316625118E-01 -1.000000047E-03 -1.279490441E-01 4.468885362E-01 -6.851994840E-05
 7.293910384E-01 -1.000000047E-03 -1.272030473E-01 4.539813995E-01 2.598247306E-07
 7.289707661E-01 -1.000000047E-03 -1.270651221E-01 4.481539428E-01 2.411598143E-05
 7.258901596E-01 -1.000000047E-03 -1.260553449E-01 4.511078000E-01 9.474403487E-05
 7.256076932E-01 -1.000000047E-03 -1.259628236E-01 4.539093077E-01 9.914037946E-05
 7.209357023E-01 -1.000000047E-03 -1.244354919E-01 4.738248587E-01 1.136492283E-04
 7.208780050E-01 -1.000000047E-03 -1.244166419E-01 4.733013213E-01 1.138958469E-04
 7.204772234E-01 -1.000000047E-03 -1.242861077E-01 4.750314951E-01 1.174669815E-04
 7.144824266E-01 -1.000000047E-03 -1.223333180E-01 4.695649743E-01 1.771477109E-04
 7.135989666E-01 -1.000000047E-03 -1.220461130E-01 4.690063894E-01 1.870543638E-04
 7.106099725E-01 -1.000000047E-03 -1.210780740E-01 4.739739299E-01 2.093617222E-04
 -2.402262092E-01 -1.000000047E-03 5.363839492E-02 -1.576899886E+00 8.928096853E-03
 -2.399302721E-01 -1.000000047E-03 5.390723050E-02 -1.576677799E+00 8.984443732E-03
 -2.405879647E-01 -1.000000047E-03 5.329819024E-02 -1.570871234E+00 8.892774582E-03
 -2.402987480E-01 -1.000000047E-03 5.357121676E-02 -1.576725364E+00 8.920096792E-03
 -2.409488559E-01 -1.000000047E-03 5.294509977E-02 -1.565501332E+00 8.796288632E-03
 -2.406644523E-01 -1.000000047E-03 5.322454125E-02 -1.568809271E+00 8.874992840E-03
 -2.412963659E-01 -1.000000047E-03 5.259078741E-02 -1.555313110E+00 8.731748909E-03
 -2.410185337E-01 -1.000000047E-03 5.287522823E-02 -1.564449072E+00 8.781980723E-03
 -2.416421175E-01 -1.000000047E-03 5.222296715E-02 -1.545394540E+00 8.602083661E-03
 -2.413696945E-01 -1.000000047E-03 5.251410231E-02 -1.552354813E+00 8.706943132E-03
 -2.419739515E-01 -1.000000047E-03 5.185395479E-02 -1.529139996E+00 8.498474956E-03
 -2.417087108E-01 -1.000000047E-03 5.215020850E-02 -1.543396950E+00 8.580673486E-03
 -2.459806204E-01 -1.000000047E-03 4.445351288E-02 -8.045781255E-01 3.175017424E-03
 -2.458829135E-01 -1.000000047E-03 4.482722655E-02 -8.552559018E-01 3.508743132E-03
 -2.460050434E-01 -1.000000047E-03 4.435368627E-02 -7.917180061E-01 3.092786996E-03
 -2.460857332E-01 -1.000000047E-03 4.400151223E-02 -7.332780361E-01 2.794720232E-03
 -2.423029095E-01 -1.000000047E-03 5.147105083E-02 -1.514076948E+00 8.325102739E-03
 -2.420438230E-01 -1.000000047E-03 5.177411810E-02 -1.525030613E+00 8.464321494E-03
 -2.426173836E-01 -1.000000047E-03 5.108714476E-02 -1.492360234E+00 8.176055737E-03
 -2.423661351E-01 -1.000000047E-03 5.139533803E-02 -1.510926366E+00 8.293925785E-03
 -2.457132638E-01 -1.000000047E-03 4.540259019E-02 -9.356385469E-01 4.015746061E-03
 -2.455887198E-01 -1.000000047E-03 4.578083754E-02 -9.849028587E-01 4.365590867E-03
 -2.458541989E-01 -1.000000047E-03 4.493049532E-02 -8.698479533E-01 3.606556449E-03
 -2.457426488E-01 -1.000000047E-03 4.530844465E-02 -9.228282571E-01 3.927870188E-03
 -2.429278195E-01 -1.000000047E-03 5.068908259E-02 -1.471734047E+00 7.955642417E-03
 -2.426834404E-01 -1.000000047E-03 5.100412294E-02 -1.487120509E+00 8.131323382E-03
 -2.432232201E-01 -1.000000047E-03 5.029032379E-02 -1.443989038E+00 7.762597874E-03
 -2.429873049E-01 -1.000000047E-03 5.061041936E-02 -1.467429280E+00 7.915093563E-03
 -2.435133457E-01 -1.000000047E-03 4.987723753E-02 -1.417401314E+00 7.499419153E-03
 -2.432850748E-01 -1.000000047E-03 5.020414293E-02 -1.437536240E+00 7.708328310E-03
 -2.437878400E-01 -1.000000047E-03 4.946382344E-02 -1.383461475E+00 7.264829241E-03
 -2.435687482E-01 -1.000000047E-03 4.979566112E-02 -1.411921859E+00 7.450362202E-03
 -2.453828156E-01 -1.000000047E-03 4.634656757E-02 -1.060705543E+00 4.859987646E-03
 -2.452349067E-01 -1.000000047E-03 4.671687633E-02 -1.104635715E+00 5.199793261E-03
 -2.455540001E-01 -1.000000047E-03 4.588096216E-02 -9.980177283E-01 4.462527577E-03
 -2.454179376E-01 -1.000000047E-03 4.625454172E-02 -1.049375772E+00 4.776694346E-03
 -2.440557033E-01 -1.000000047E-03 4.903598875E-02 -1.349147320E+00 6.960137747E-03
 -2.438450903E-01 -1.000000047E-03 4.937453941E-02 -1.375601292E+00 7.202396635E-03
 -2.443073094E-01 -1.000000047E-03 4.860828444E-02 -1.311375976E+00 6.684866734E-03
 -2.441066504E-01 -1.000000047E-03 4.895155504E-02 -1.342559576E+00 6.902186200E-03
 -2.445508391E-01 -1.000000047E-03 4.816615954E-02 -1.270163178E+00 6.351717748E-03
 -2.443595529E-01 -1.000000047E-03 4.851595312E-02 -1.302797198E+00 6.614079233E-03
 -2.447774708E-01 -1.000000047E-03 4.772470891E-02 -1.223673463E+00 6.037110463E-03
 -2.445969135E-01 -1.000000047E-03 4.807895422E-02 -1.261321187E+00 6.286612246E-03
 -2.449945211E-01 -1.000000047E-03 4.726898670E-02 -1.173584819E+00 5.656159949E-03
 -2.448242307E-01 -1.000000047E-03 4.762950912E-02 -1.213340163E+00 5.956202745E-03
 -2.451940775E-01 -1.000000047E-03 4.681468010E-02 -1.117288589E+00 5.290654488E-03
 -2.450352460E-01 -1.000000047E-03 4.717924446E-02 -1.163088918E+00 5.581271369E-03
 -2.398505807E-01 -1.000000047E-03 5.397827551E-02 -1.577813148E+00 8.996594697E-03
 -2.395489961E-01 -1.000000047E-03 5.424216017E-02 -1.581026196E+00 9.002817795E-03
 -2.394730002E-01 -1.000000047E-03 5.430745333E-02 -1.580665946E+00 9.006716311E-03
 -2.391620278E-01 -1.000000047E-03 5.456985906E-02 -1.578879356E+00 9.046648629E-03
 -2.390779257E-01 -1.000000047E-03 5.463957787E-02 -1.578912139E+00 9.053637274E-03
 -2.387578636E-01 -1.000000047E-03 5.490010604E-02 -1.579046845E+00 9.061247110E-03
 -2.386768758E-01 -1.000000047E-03 5.496491119E-02 -1.578113914E+00 9.063573554E-03
 -2.383404970E-01 -1.000000047E-03 5.522928014E-02 -1.572954774E+00 9.110499173E-03
 -2.461093813E-01 -1.000000047E-03 4.389093071E-02 -7.277078032E-01 2.633342752E-03
 -2.382486165E-01 -1.000000047E-03 5.530025810E-02 -1.573159814E+00 9.117451496E-03
 -2.378958762E-01 -1.000000047E-03 5.556781590E-02 -1.573101163E+00 9.111290798E-03
 -2.378053516E-01 -1.000000047E-03 5.563532189E-02 -1.571899772E+00 9.112519212E-03
 -2.374304682E-01 -1.000000047E-03 5.590982363E-02 -1.566792130E+00 9.137504734E-03
 -2.373278290E-01 -1.000000047E-03 5.598369613E-02 -1.565737963E+00 9.143819101E-03
 -2.369357646E-01 -1.000000047E-03 5.626069382E-02 -1.563339353E+00 9.130031802E-03
 -2.368358821E-01 -1.000000047E-03 5.633004382E-02 -1.562189698E+00 9.132290259E-03
 -2.364214957E-01 -1.000000047E-03 5.661246181E-02 -1.557653427E+00 9.148478508E-03
 -2.363085449E-01 -1.000000047E-03 5.668806285E-02 -1.555868983E+00 9.152937680E-03
 -2.358760536E-01 -1.000000047E-03 5.697212368E-02 -1.549947381E+00 9.121777490E-03