TITLE     = "tecplot geometry and solution file"
VARIABLES = "x"
"y"
"z"
"cp"
"cf_x"
ZONE T="Slice: Y=-0.001"
 STRANDID=0, SOLUTIONTIME=0
 Nodes=315, Elements=313, ZONETYPE=FELineSeg
 DATAPACKING=POINT
 DT=(SINGLE SINGLE SINGLE SINGLE SINGLE )
 -2.462019324E-01 -1.000000047E-03 4.341204464E-02 -6.048790812E-01 2.465591533E-03
 7.386057973E-01 -1.000000047E-03 -1.302361339E-01 3.818183541E-01 1.880818163E-03
 7.386057973E-01 -1.000000047E-03 -1.302361339E-01 3.818183541E-01 1.880818163E-03
 -2.462019324E-01 -1.000000047E-03 4.341204464E-02 -6.048790812E-01 2.465591533E-03
 -2.463828623E-01 -1.000000047E-03 4.199763387E-02 -3.898405433E-01 1.448970870E-03
 -2.463196218E-01 -1.000000047E-03 4.262143746E-02 -4.698484540E-01 1.868093619E-03
 -2.464354485E-01 -1.000000047E-03 4.097399488E-02 -2.354017347E-01 7.125874399E-04
 -2.463997453E-01 -1.000000047E-03 4.178169370E-02 -3.501389921E-01 1.287781051E-03
 -2.464371771E-01 -1.000000047E-03 4.086190835E-02 -2.211820036E-01 6.354530924E-04
 -2.463471144E-01 -1.000000047E-03 3.894746676E-02 4.329841956E-02 -5.207201466E-04
 -2.463373840E-01 -1.000000047E-03 3.885657340E-02 5.562720820E-02 -5.650680978E-04
 -2.460203618E-01 -1.000000047E-03 3.697287291E-02 2.941896915E-01 -1.282122568E-03
 -2.460002303E-01 -1.000000047E-03 3.688353673E-02 3.040694892E-01 -1.305405051E-03
 -2.454812974E-01 -1.000000047E-03 3.504493088E-02 5.015510917E-01 -1.608899212E-03
 -2.454521358E-01 -1.000000047E-03 3.495799750E-02 5.094363689E-01 -1.615477726E-03
 -2.447597980E-01 -1.000000047E-03 3.317725658E-02 6.513608098E-01 -1.631268067E-03
 -2.447229028E-01 -1.000000047E-03 3.309321404E-02 6.571221352E-01 -1.629007631E-03
 -2.438830584E-01 -1.000000047E-03 3.137820959E-02 7.719817162E-01 -1.464083209E-03
 -2.438389510E-01 -1.000000047E-03 3.129614890E-02 7.764461637E-01 -1.450794283E-03
 -2.428732961E-01 -1.000000047E-03 2.964653075E-02 8.469281793E-01 -1.212268253E-03
 -2.427827716E-01 -1.000000047E-03 2.950290404E-02 8.537649512E-01 -1.195868012E-03
 -2.422970980E-01 -1.000000047E-03 2.876304276E-02 8.843340278E-01 -1.073128195E-03
 -2.421728671E-01 -1.000000047E-03 2.857958339E-02 8.901139498E-01 -1.047234517E-03
 -2.416117489E-01 -1.000000047E-03 2.778330818E-02 9.138173461E-01 -9.118185262E-04
 -2.414822876E-01 -1.000000047E-03 2.760516293E-02 9.201540947E-01 -8.825758705E-04
 -2.408379912E-01 -1.000000047E-03 2.675147913E-02 9.394224882E-01 -7.188033778E-04
 -2.406787276E-01 -1.000000047E-03 2.654686384E-02 9.440401793E-01 -6.832082872E-04
 -2.399452925E-01 -1.000000047E-03 2.564005367E-02 9.571905732E-01 -5.222197506E-04
 -2.397794425E-01 -1.000000047E-03 2.544105612E-02 9.595085382E-01 -4.911944270E-04
 -2.389360219E-01 -1.000000047E-03 2.446698956E-02 9.789092541E-01 -3.348550526E-04
 7.343786359E-01 -1.000000047E-03 -1.301067621E-01 4.180548191E-01 5.874371273E-04
 -2.387205809E-01 -1.000000047E-03 2.422580309E-02 9.815962315E-01 -3.001385194E-04
 -2.377762794E-01 -1.000000047E-03 2.320646867E-02 9.904175997E-01 -1.389392419E-04
 -2.375772446E-01 -1.000000047E-03 2.299773693E-02 9.913213849E-01 -1.020635245E-04
 -2.365033925E-01 -1.000000047E-03 2.191066928E-02 9.950973988E-01 7.978433860E-05
 -2.362406254E-01 -1.000000047E-03 2.165153995E-02 9.951999784E-01 1.176438454E-04
 -2.349908352E-01 -1.000000047E-03 2.046400495E-02 9.890344143E-01 2.643431071E-04
 -2.346981764E-01 -1.000000047E-03 2.019356750E-02 9.876220226E-01 2.935145458E-04
 -2.332614809E-01 -1.000000047E-03 1.891261898E-02 9.913098216E-01 4.417941964E-04
 -2.329258323E-01 -1.000000047E-03 1.862165704E-02 9.891816974E-01 4.750345543E-04
 -2.312667817E-01 -1.000000047E-03 1.723603532E-02 9.802207947E-01 6.187280524E-04
 7.343029976E-01 -1.000000047E-03 -1.301043481E-01 4.178185165E-01 5.837779609E-04
 7.303515077E-01 -1.000000047E-03 -1.299802512E-01 4.166564941E-01 5.157905398E-04
 -2.308892608E-01 -1.000000047E-03 1.692876033E-02 9.781648517E-01 6.454362883E-04
 -2.288781255E-01 -1.000000047E-03 1.535614673E-02 9.602239132E-01 7.674371591E-04
 -2.283439785E-01 -1.000000047E-03 1.494978927E-02 9.559072256E-01 7.937757182E-04
 -2.259771377E-01 -1.000000047E-03 1.321956608E-02 9.339040518E-01 8.874789346E-04
 -2.254376262E-01 -1.000000047E-03 1.283647586E-02 9.287872910E-01 9.052763344E-04
 -2.226790190E-01 -1.000000047E-03 1.095281262E-02 9.076797366E-01 9.746912401E-04
 -2.219882607E-01 -1.000000047E-03 1.049424615E-02 9.023784995E-01 9.872263763E-04
 -2.187562287E-01 -1.000000047E-03 8.435075171E-03 8.803325891E-01 1.039185794E-03
 7.301001549E-01 -1.000000047E-03 -1.299721301E-01 4.166221321E-01 5.137342960E-04
 -2.179940045E-01 -1.000000047E-03 7.962441072E-03 8.747317195E-01 1.047664904E-03
 -2.141149938E-01 -1.000000047E-03 5.656260531E-03 8.506549001E-01 1.099439571E-03
 -2.130947709E-01 -1.000000047E-03 5.067665130E-03 8.451825976E-01 1.109138364E-03
 -2.085311413E-01 -1.000000047E-03 2.542865928E-03 8.170761466E-01 1.159530482E-03
 -2.076145113E-01 -1.000000047E-03 2.049459144E-03 8.111055493E-01 1.167564071E-03
 -2.020091265E-01 -1.000000047E-03 -8.367197006E-04 7.826234102E-01 1.224531792E-03
 7.182310820E-01 -1.000000047E-03 -1.295780987E-01 4.095280468E-01 5.635578418E-04
 -2.008016855E-01 -1.000000047E-03 -1.441974659E-03 7.768127918E-01 1.231229631E-03
 -1.940055639E-01 -1.000000047E-03 -4.684588406E-03 7.479856014E-01 1.300524222E-03
 -1.922788918E-01 -1.000000047E-03 -5.483747460E-03 7.409224510E-01 1.309121610E-03
 -1.842482388E-01 -1.000000047E-03 -9.027794003E-03 7.042514682E-01 1.396272448E-03
 -1.829423159E-01 -1.000000047E-03 -9.586634114E-03 6.981402636E-01 1.405420247E-03
 -1.731785387E-01 -1.000000047E-03 -1.356827281E-02 6.690207720E-01 1.487516798E-03
 7.147771120E-01 -1.000000047E-03 -1.294591874E-01 4.072992206E-01 5.786918919E-04
 7.041587830E-01 -1.000000047E-03 -1.290799230E-01 4.010161757E-01 5.872874754E-04
 -1.707651466E-01 -1.000000047E-03 -1.452275366E-02 6.618997455E-01 1.514878357E-03
 -1.588317454E-01 -1.000000047E-03 -1.898388192E-02 6.279843450E-01 1.617079834E-03
 -1.554187089E-01 -1.000000047E-03 -2.021440677E-02 6.196005940E-01 1.632957137E-03
 -1.413059980E-01 -1.000000047E-03 -2.503109723E-02 5.885726810E-01 1.652238308E-03
 -1.378025115E-01 -1.000000047E-03 -2.618464641E-02 5.808416009E-01 1.620023511E-03
 -1.208837777E-01 -1.000000047E-03 -3.142867982E-02 5.481024384E-01 1.599072479E-03
 6.983395219E-01 -1.000000047E-03 -1.288676113E-01 3.988805711E-01 6.059262087E-04
 6.844682693E-01 -1.000000047E-03 -1.283270121E-01 3.943257034E-01 6.394355441E-04
 -1.158503443E-01 -1.000000047E-03 -3.293597326E-02 5.411170721E-01 1.582021592E-03
 -9.499207139E-02 -1.000000047E-03 -3.877146542E-02 5.160332918E-01 1.588128973E-03
 -8.833817393E-02 -1.000000047E-03 -4.055430740E-02 5.068722367E-01 1.582432888E-03
 -6.452304125E-02 -1.000000047E-03 -4.652545974E-02 4.794354141E-01 1.586997765E-03
 -5.671461299E-02 -1.000000047E-03 -4.838670045E-02 4.729276597E-01 1.581270713E-03
 -3.173372895E-02 -1.000000047E-03 -5.400784314E-02 4.560746551E-01 1.554299379E-03
 6.748397350E-01 -1.000000047E-03 -1.279446185E-01 3.908348083E-01 6.629664567E-04
 6.575985551E-01 -1.000000047E-03 -1.272014081E-01 3.844106197E-01 7.036350435E-04
 -2.260585316E-02 -1.000000047E-03 -5.595305189E-02 4.502495527E-01 1.543266349E-03
 1.831626520E-03 -1.000000047E-03 -6.090151891E-02 4.320279360E-01 1.514509087E-03
 1.245762035E-02 -1.000000047E-03 -6.294633448E-02 4.240087867E-01 1.501278719E-03
 3.986649960E-02 -1.000000047E-03 -6.793157011E-02 4.121891856E-01 1.468212577E-03
 6.434620619E-01 -1.000000047E-03 -1.265743673E-01 3.799279630E-01 7.246418972E-04
 6.240301132E-01 -1.000000047E-03 -1.256413907E-01 3.748278618E-01 7.593121845E-04
 5.395684764E-02 -1.000000047E-03 -7.037781924E-02 4.067941904E-01 1.435770420E-03
 1.103665307E-01 -1.000000047E-03 -7.927999645E-02 3.829384148E-01 1.347805257E-03
 1.119812205E-01 -1.000000047E-03 -7.951618731E-02 3.824023902E-01 1.346254256E-03
 1.415954381E-01 -1.000000047E-03 -8.369574696E-02 3.752031028E-01 1.267712680E-03
 1.488689929E-01 -1.000000047E-03 -8.468283713E-02 3.736419678E-01 1.266580424E-03
 1.788384467E-01 -1.000000047E-03 -8.857740462E-02 3.666753471E-01 1.206416404E-03
 2.162306607E-01 -1.000000047E-03 -9.310003370E-02 3.593131900E-01 1.166877453E-03
 1.879996657E-01 -1.000000047E-03 -8.971790224E-02 3.647210598E-01 1.193488133E-03
 2.245786339E-01 -1.000000047E-03 -9.405972064E-02 3.581586182E-01 1.161106164E-03
 2.502700388E-01 -1.000000047E-03 -9.692084044E-02 3.542006016E-01 1.136092702E-03
 2.596926093E-01 -1.000000047E-03 -9.793076664E-02 3.529483974E-01 1.143104164E-03
 2.836515009E-01 -1.000000047E-03 -1.004219577E-01 3.516505659E-01 1.149426331E-03
 2.971276641E-01 -1.000000047E-03 -1.017684266E-01 3.505679369E-01 1.153868157E-03
 3.194917440E-01 -1.000000047E-03 -1.039401814E-01 3.488103449E-01 1.207032590E-03
 5.842779279E-01 -1.000000047E-03 -1.235761791E-01 3.664723635E-01 9.336073417E-04
 6.055370569E-01 -1.000000047E-03 -1.247147322E-01 3.705995083E-01 7.976528723E-04
 5.411951542E-01 -1.000000047E-03 -1.210738197E-01 3.576655984E-01 1.198352198E-03
 5.670331717E-01 -1.000000047E-03 -1.226077303E-01 3.633258641E-01 1.000922406E-03
 5.026025176E-01 -1.000000047E-03 -1.186091751E-01 3.541721404E-01 9.393180953E-04
 5.307812095E-01 -1.000000047E-03 -1.204293445E-01 3.561451435E-01 1.187814749E-03
 4.965097308E-01 -1.000000047E-03 -1.182001531E-01 3.535248041E-01 9.146402008E-04
 4.704664946E-01 -1.000000047E-03 -1.163958684E-01 3.509006202E-01 8.669992094E-04
 4.637801051E-01 -1.000000047E-03 -1.159166321E-01 3.505032659E-01 8.827775018E-04
 4.391467273E-01 -1.000000047E-03 -1.140949056E-01 3.497604132E-01 9.304146515E-04
 4.282319248E-01 -1.000000047E-03 -1.132599562E-01 3.495839834E-01 9.591317503E-04
 4.041345119E-01 -1.000000047E-03 -1.113554835E-01 3.485786617E-01 1.036756556E-03
 3.888485432E-01 -1.000000047E-03 -1.100976691E-01 3.477849364E-01 1.057740999E-03
 3.667028248E-01 -1.000000047E-03 -1.082211360E-01 3.471832275E-01 1.167767332E-03
 3.325473368E-01 -1.000000047E-03 -1.051593497E-01 3.481047153E-01 1.201168168E-03
 3.536290228E-01 -1.000000047E-03 -1.070714816E-01 3.472257555E-01 1.193804201E-03
 7.386057973E-01 -1.000000047E-03 -1.302361339E-01 3.818183541E-01 1.880817814E-03
 -2.442853898E-01 -1.000000047E-03 3.216202557E-02 7.166966796E-01 -1.603206387E-03
 -2.434078157E-01 -1.000000047E-03 3.052954562E-02 8.069538474E-01 -1.374812215E-03
 -2.443684191E-01 -1.000000047E-03 3.233163431E-02 7.053306699E-01 -1.619857736E-03
 -2.443312109E-01 -1.000000047E-03 3.225149214E-02 7.107179165E-01 -1.617481001E-03
 -2.443272471E-01 -1.000000047E-03 3.224342316E-02 7.112933993E-01 -1.616396359E-03
 -2.443293035E-01 -1.000000047E-03 3.224748001E-02 7.109917402E-01 -1.616350492E-03
 -2.450957298E-01 -1.000000047E-03 3.398946300E-02 5.851092935E-01 -1.713519567E-03
 -2.451659292E-01 -1.000000047E-03 3.416999802E-02 5.707831979E-01 -1.712441444E-03
 -2.451353073E-01 -1.000000047E-03 3.408539295E-02 5.775582194E-01 -1.720890519E-03
 -2.451319695E-01 -1.000000047E-03 3.407684714E-02 5.784093738E-01 -1.720540342E-03
 -2.451337129E-01 -1.000000047E-03 3.408115357E-02 5.780278444E-01 -1.720064553E-03
 -2.457401752E-01 -1.000000047E-03 3.588390350E-02 4.105730653E-01 -1.615408924E-03
 -2.457932830E-01 -1.000000047E-03 3.607206047E-02 3.903721571E-01 -1.585140941E-03
 -2.457709461E-01 -1.000000047E-03 3.598402068E-02 3.999267519E-01 -1.612911117E-03
 -2.457684129E-01 -1.000000047E-03 3.597510979E-02 4.009911716E-01 -1.613779226E-03
 -2.457697690E-01 -1.000000047E-03 3.597960249E-02 4.005559981E-01 -1.612733817E-03
 -2.461894006E-01 -1.000000047E-03 3.783303499E-02 1.856715232E-01 -1.162180793E-03
 -2.462223023E-01 -1.000000047E-03 3.802844137E-02 1.608827859E-01 -1.088845893E-03
 -2.462097555E-01 -1.000000047E-03 3.793721274E-02 1.726285964E-01 -1.142863068E-03
 -2.462081760E-01 -1.000000047E-03 3.792795539E-02 1.741221398E-01 -1.145784510E-03
 -2.462090552E-01 -1.000000047E-03 3.793263063E-02 1.735111326E-01 -1.143764821E-03
 -2.464230210E-01 -1.000000047E-03 4.000420496E-02 -9.927177429E-02 -1.528052962E-04
 -2.464137822E-01 -1.000000047E-03 3.981959820E-02 -7.391238958E-02 -2.576463739E-04
 -2.464219034E-01 -1.000000047E-03 3.992741928E-02 -8.858257532E-02 -2.179672738E-04
 -2.464214265E-01 -1.000000047E-03 3.991786018E-02 -8.689237386E-02 -2.236288419E-04
 -2.464217544E-01 -1.000000047E-03 3.992269561E-02 -8.735913783E-02 -2.204083430E-04
 -2.433633357E-01 -1.000000047E-03 3.045270592E-02 8.102543950E-01 -1.364680124E-03
 -2.433816046E-01 -1.000000047E-03 3.048283979E-02 8.089447618E-01 -1.369439764E-03
 -2.433789670E-01 -1.000000047E-03 3.047835268E-02 8.092193604E-01 -1.368634519E-03
 -2.433802783E-01 -1.000000047E-03 3.048052825E-02 8.090934753E-01 -1.368661993E-03
 7.368686199E-01 -1.000000047E-03 -1.301833838E-01 4.203214049E-01 1.046542428E-03
 7.348182797E-01 -1.000000047E-03 -1.301203519E-01 4.181592166E-01 6.646814290E-04
 7.367230654E-01 -1.000000047E-03 -1.301789433E-01 4.192506671E-01 9.689093567E-04
 7.282310724E-01 -1.000000047E-03 -1.299124211E-01 4.149835110E-01 5.120609421E-04
 7.250928283E-01 -1.000000047E-03 -1.298114061E-01 4.121605456E-01 5.123043084E-04
 7.233519554E-01 -1.000000047E-03 -1.297532320E-01 4.115796685E-01 5.224912311E-04
 7.744120061E-02 -1.000000047E-03 -7.421843708E-02 3.964956701E-01 1.360418391E-03
 8.213511109E-02 -1.000000047E-03 -7.498797029E-02 3.943632543E-01 1.352808671E-03
 9.814168513E-02 -1.000000047E-03 -7.741947472E-02 3.879841268E-01 1.349893748E-03
 -2.462019324E-01 -1.000000047E-03 4.341204464E-02 -6.048790812E-01 3.154389095E-03
 7.386057973E-01 -1.000000047E-03 -1.302361339E-01 3.818183541E-01 1.568458625E-03
 -2.462019324E-01 -1.000000047E-03 4.341204464E-02 -6.048790812E-01 3.154389095E-03
 -2.458924502E-01 -1.000000047E-03 4.478855059E-02 -8.080529571E-01 3.873164533E-03
 -2.460435033E-01 -1.000000047E-03 4.418921098E-02 -7.025129795E-01 3.250196343E-03
 7.386057973E-01 -1.000000047E-03 -1.302361339E-01 3.818183541E-01 1.568458625E-03
 7.376793027E-01 -1.000000047E-03 -1.299307942E-01 3.840798438E-01 1.062607509E-03
 -2.458390892E-01 -1.000000047E-03 4.498059303E-02 -8.287841678E-01 4.082677886E-03
 -2.452398539E-01 -1.000000047E-03 4.670428857E-02 -1.068195462E+00 5.441102199E-03
 -2.452060580E-01 -1.000000047E-03 4.678524286E-02 -1.076914549E+00 5.491457880E-03
 -2.443657070E-01 -1.000000047E-03 4.850453138E-02 -1.271358252E+00 6.902707741E-03
 -2.443224341E-01 -1.000000047E-03 4.858103767E-02 -1.276841640E+00 6.946689915E-03
 -2.432920933E-01 -1.000000047E-03 5.019396171E-02 -1.405613184E+00 7.998353802E-03
 -2.432407737E-01 -1.000000047E-03 5.026547611E-02 -1.410171747E+00 8.027466014E-03
 -2.420513332E-01 -1.000000047E-03 5.176521093E-02 -1.506161332E+00 8.770216256E-03
 -2.419933230E-01 -1.000000047E-03 5.183151737E-02 -1.508426189E+00 8.783583529E-03
 -2.406632304E-01 -1.000000047E-03 5.322533101E-02 -1.555485010E+00 9.059011005E-03
 -2.399448156E-01 -1.000000047E-03 5.389366299E-02 -1.562137842E+00 9.213408455E-03
 -2.405845672E-01 -1.000000047E-03 5.330107361E-02 -1.557351708E+00 9.078618139E-03
 -2.398316413E-01 -1.000000047E-03 5.399455503E-02 -1.564775825E+00 9.215775877E-03
 -2.391906828E-01 -1.000000047E-03 5.454537645E-02 -1.562808990E+00 9.236573242E-03
 -2.390543222E-01 -1.000000047E-03 5.465851724E-02 -1.563768148E+00 9.224685840E-03
 -2.383814156E-01 -1.000000047E-03 5.519694835E-02 -1.572203279E+00 9.218681604E-03
 -2.382517010E-01 -1.000000047E-03 5.529754236E-02 -1.565156460E+00 9.219978005E-03
 -2.375156432E-01 -1.000000047E-03 5.584737659E-02 -1.564327955E+00 9.303068742E-03
 -2.373454422E-01 -1.000000047E-03 5.597063154E-02 -1.569322824E+00 9.299567901E-03
 -2.365291715E-01 -1.000000047E-03 5.653910711E-02 -1.557401299E+00 9.209414013E-03
 -2.363490164E-01 -1.000000047E-03 5.666046217E-02 -1.556513786E+00 9.172881953E-03
 -2.354527563E-01 -1.000000047E-03 5.724146590E-02 -1.544497728E+00 8.974625729E-03
 -2.352463603E-01 -1.000000047E-03 5.737069249E-02 -1.542792439E+00 8.915118873E-03
 -2.342178226E-01 -1.000000047E-03 5.798897892E-02 -1.522411466E+00 8.636770770E-03
 -2.340526879E-01 -1.000000047E-03 5.808492005E-02 -1.518514276E+00 8.594963700E-03
 -2.328689843E-01 -1.000000047E-03 5.874358490E-02 -1.498011112E+00 8.344366215E-03
 7.343681455E-01 -1.000000047E-03 -1.288390458E-01 4.037441909E-01 7.842329796E-05
 -2.326300889E-01 -1.000000047E-03 5.887171626E-02 -1.493800759E+00 8.296985179E-03
 -2.313533872E-01 -1.000000047E-03 5.952711031E-02 -1.464029312E+00 8.043662645E-03
 -2.311121821E-01 -1.000000047E-03 5.964655429E-02 -1.459297895E+00 8.000583388E-03
 -2.297110707E-01 -1.000000047E-03 6.031060964E-02 -1.434335589E+00 7.791938260E-03
 -2.293840945E-01 -1.000000047E-03 6.046017259E-02 -1.432401657E+00 7.741046138E-03
 -2.278057188E-01 -1.000000047E-03 6.114773825E-02 -1.412436128E+00 7.489327341E-03
 -2.274456471E-01 -1.000000047E-03 6.129856408E-02 -1.402231097E+00 7.435147651E-03
 -2.256764024E-01 -1.000000047E-03 6.200332940E-02 -1.358896732E+00 7.181509864E-03
 -2.252794951E-01 -1.000000047E-03 6.215498224E-02 -1.356623411E+00 7.119212300E-03
 -2.231826037E-01 -1.000000047E-03 6.291306019E-02 -1.330367446E+00 6.811966188E-03
 7.343327999E-01 -1.000000047E-03 -1.288274527E-01 4.037395716E-01 7.465024828E-05
 7.306025624E-01 -1.000000047E-03 -1.276008040E-01 3.945217431E-01 -1.332842075E-04
 -2.228412926E-01 -1.000000047E-03 6.303143501E-02 -1.323126554E+00 6.763074547E-03
 -2.202807665E-01 -1.000000047E-03 6.386619061E-02 -1.282615066E+00 6.460952107E-03
 -2.197294086E-01 -1.000000047E-03 6.403733790E-02 -1.274753571E+00 6.406051572E-03
 -2.168547958E-01 -1.000000047E-03 6.487119943E-02 -1.243368506E+00 6.168402731E-03
 -2.162228376E-01 -1.000000047E-03 6.504476070E-02 -1.234984398E+00 6.113774143E-03
 -2.131232619E-01 -1.000000047E-03 6.583760679E-02 -1.176640153E+00 5.882433150E-03
 -2.122212797E-01 -1.000000047E-03 6.605501473E-02 -1.169906020E+00 5.782733206E-03
 -2.087921202E-01 -1.000000047E-03 6.681975722E-02 -1.134638071E+00 5.525137763E-03
 7.305833697E-01 -1.000000047E-03 -1.275945008E-01 3.945045173E-01 -1.339564624E-04
 -2.074108571E-01 -1.000000047E-03 6.710760295E-02 -1.117480755E+00 5.393190309E-03
 -2.028067559E-01 -1.000000047E-03 6.797755510E-02 -1.084347606E+00 5.114973057E-03
 -2.023113072E-01 -1.000000047E-03 6.806444377E-02 -1.078045249E+00 5.082163494E-03
 7.196037173E-01 -1.000000047E-03 -1.240062565E-01 3.831127286E-01 -2.161186858E-04
 -1.697481722E-01 -1.000000047E-03 7.151814550E-02 -8.461805582E-01 3.852252150E-03
 -1.687701643E-01 -1.000000047E-03 7.157175988E-02 -8.419014215E-01 3.812596202E-03
 -1.576245874E-01 -1.000000047E-03 7.199564576E-02 -7.869070172E-01 3.348593134E-03
 7.162190676E-01 -1.000000047E-03 -1.229046732E-01 3.811076283E-01 -2.224784694E-04
 7.058054209E-01 -1.000000047E-03 -1.195290983E-01 3.737228513E-01 -2.389903093E-04
 -1.555918306E-01 -1.000000047E-03 7.205058634E-02 -7.758618593E-01 3.296680283E-03
 -1.424716860E-01 -1.000000047E-03 7.216127962E-02 -7.235970497E-01 2.935115015E-03
 -1.386981457E-01 -1.000000047E-03 7.214792073E-02 -7.086988688E-01 2.850699704E-03
 -1.237708256E-01 -1.000000047E-03 7.183843106E-02 -6.654046774E-01 2.491120948E-03
 -1.204655319E-01 -1.000000047E-03 7.173448056E-02 -6.561484337E-01 2.381609054E-03
 -1.026700959E-01 -1.000000047E-03 7.086560130E-02 -5.940607190E-01 2.042152220E-03
 7.005257010E-01 -1.000000047E-03 -1.178227141E-01 3.694956303E-01 -2.494437504E-04
 6.859456897E-01 -1.000000047E-03 -1.131482869E-01 3.590001464E-01 -2.734905283E-04
 -9.693671018E-02 -1.000000047E-03 7.052984834E-02 -5.791228414E-01 1.976824366E-03
 -7.525867969E-02 -1.000000047E-03 6.885959208E-02 -5.299037099E-01 1.744193374E-03
 -6.894020736E-02 -1.000000047E-03 6.830393523E-02 -5.151025653E-01 1.689848839E-03
 -4.434097186E-02 -1.000000047E-03 6.574302167E-02 -4.631624818E-01 1.430118689E-03
 -3.551644087E-02 -1.000000047E-03 6.471674144E-02 -4.446128607E-01 1.371633378E-03
 -1.024378929E-02 -1.000000047E-03 6.145483628E-02 -3.931179047E-01 1.157635939E-03
 6.788475513E-01 -1.000000047E-03 -1.108794808E-01 3.542261124E-01 -2.826227865E-04
 6.598225832E-01 -1.000000047E-03 -1.048690304E-01 3.422178328E-01 -3.074073175E-04
 -1.682835398E-03 -1.000000047E-03 6.025005504E-02 -3.764488101E-01 1.104340306E-03
 2.314237319E-02 -1.000000047E-03 5.650873855E-02 -3.258704841E-01 9.247655980E-04
 3.447590396E-02 -1.000000047E-03 5.468519032E-02 -3.066740930E-01 8.785679238E-04
 6.152387708E-02 -1.000000047E-03 5.005532876E-02 -2.635342181E-01 7.461258210E-04
 6.485494375E-01 -1.000000047E-03 -1.013232023E-01 3.349733055E-01 -3.191198339E-04
 6.276040077E-01 -1.000000047E-03 -9.482267499E-02 3.224341869E-01 -3.437843116E-04
 7.542689890E-02 -1.000000047E-03 4.755802080E-02 -2.409614027E-01 6.811179919E-04
 1.313114315E-01 -1.000000047E-03 3.665178269E-02 -1.487482637E-01 4.069666029E-04
 1.323049814E-01 -1.000000047E-03 3.644624352E-02 -1.472474039E-01 4.041921638E-04
 1.626692712E-01 -1.000000047E-03 3.000742756E-02 -1.061428711E-01 3.540161124E-04
 1.682304144E-01 -1.000000047E-03 2.879776247E-02 -9.808225185E-02 3.447004419E-04
 1.985476464E-01 -1.000000047E-03 2.202425897E-02 -5.189595371E-02 1.730802323E-04
 2.350789011E-01 -1.000000047E-03 1.351922378E-02 -7.316263858E-03 9.806769231E-05
 2.070247829E-01 -1.000000047E-03 2.008213475E-02 -4.032614455E-02 1.604722784E-04
 2.431195676E-01 -1.000000047E-03 1.159741078E-02 2.590480261E-03 8.003114635E-05
 2.684038579E-01 -1.000000047E-03 5.459192209E-03 3.546249494E-02 -2.216905705E-05
 2.775400281E-01 -1.000000047E-03 3.201193176E-03 4.713398591E-02 -6.025457697E-05
 3.012780845E-01 -1.000000047E-03 -2.746546408E-03 7.612045854E-02 -1.858366595E-04
 3.137181997E-01 -1.000000047E-03 -5.916184746E-03 8.922982961E-02 -2.327134134E-04
 3.357133269E-01 -1.000000047E-03 -1.158500928E-02 1.109192446E-01 -3.364048898E-04
 5.891108513E-01 -1.000000047E-03 -8.304772526E-02 2.992354929E-01 -4.006844829E-04
 6.110549569E-01 -1.000000047E-03 -8.972159028E-02 3.125283122E-01 -3.624542442E-04
 5.504482985E-01 -1.000000047E-03 -7.147048414E-02 2.731465399E-01 -4.507653648E-04
 5.746515393E-01 -1.000000047E-03 -7.868614048E-02 2.900865376E-01 -4.173010238E-04
 5.139370561E-01 -1.000000047E-03 -6.075751036E-02 2.489133924E-01 -4.655761877E-04
 5.391706228E-01 -1.000000047E-03 -6.813871861E-02 2.644357681E-01 -4.532423918E-04
 5.065529943E-01 -1.000000047E-03 -5.861791968E-02 2.454273999E-01 -4.650330229E-04
 4.819730818E-01 -1.000000047E-03 -5.155237764E-02 2.307210118E-01 -4.708625202E-04
 4.756927490E-01 -1.000000047E-03 -4.976333305E-02 2.263801992E-01 -4.813746782E-04
 4.512549043E-01 -1.000000047E-03 -4.286165908E-02 2.096790075E-01 -5.040676915E-04
 4.417050183E-01 -1.000000047E-03 -4.019069672E-02 2.031666785E-01 -5.211664829E-04
 4.169732928E-01 -1.000000047E-03 -3.334166482E-02 1.851559877E-01 -5.298032193E-04
 4.037238955E-01 -1.000000047E-03 -2.971804142E-02 1.745901406E-01 -5.299769109E-04
 3.812596202E-01 -1.000000047E-03 -2.363350987E-02 1.551389545E-01 -4.911748692E-04
 3.483887017E-01 -1.000000047E-03 -1.490208786E-02 1.233905554E-01 -3.874572867E-04
 3.686912060E-01 -1.000000047E-03 -2.027177624E-02 1.425779313E-01 -4.619614047E-04
 -2.411813736E-01 -1.000000047E-03 5.270499364E-02 -1.546055436E+00 8.861193433E-03
 -2.415079921E-01 -1.000000047E-03 5.236146599E-02 -1.534360290E+00 8.797179908E-03
 -2.413410544E-01 -1.000000047E-03 5.254416540E-02 -1.542579174E+00 8.819606155E-03
 -2.413220257E-01 -1.000000047E-03 5.256416276E-02 -1.544003487E+00 8.823608048E-03
 -2.413315028E-01 -1.000000047E-03 5.255445465E-02 -1.542627931E+00 8.823112585E-03
 -2.424899042E-01 -1.000000047E-03 5.123862624E-02 -1.470509171E+00 8.324120194E-03
 -2.428076118E-01 -1.000000047E-03 5.083796754E-02 -1.445137143E+00 8.125457913E-03
 -2.426581383E-01 -1.000000047E-03 5.103604123E-02 -1.456686497E+00 8.180048317E-03
 -2.426409721E-01 -1.000000047E-03 5.105774477E-02 -1.458652973E+00 8.192125708E-03
 -2.426495701E-01 -1.000000047E-03 5.104719847E-02 -1.457288027E+00 8.186465129E-03
 -2.436757535E-01 -1.000000047E-03 4.962731898E-02 -1.368093967E+00 7.398729213E-03
 -2.439520657E-01 -1.000000047E-03 4.919470102E-02 -1.334208488E+00 7.116395049E-03
 -2.438236177E-01 -1.000000047E-03 4.940820858E-02 -1.352339983E+00 7.199305110E-03
 -2.438086867E-01 -1.000000047E-03 4.943164438E-02 -1.355195045E+00 7.215839811E-03
 -2.438162118E-01 -1.000000047E-03 4.942024499E-02 -1.353456736E+00 7.208738010E-03
 -2.446837127E-01 -1.000000047E-03 4.790015519E-02 -1.204467535E+00 6.120475475E-03
 -2.456069738E-01 -1.000000047E-03 4.571833089E-02 -9.237861037E-01 4.447247833E-03
 -2.454816550E-01 -1.000000047E-03 4.606758803E-02 -9.731658101E-01 4.750255030E-03
 -2.455750108E-01 -1.000000047E-03 4.582107812E-02 -9.351814985E-01 4.516546149E-03
 -2.455685288E-01 -1.000000047E-03 4.583989084E-02 -9.373530746E-01 4.529017024E-03
 -2.449102998E-01 -1.000000047E-03 4.743644968E-02 -1.152763844E+00 5.740678869E-03
 -2.448070198E-01 -1.000000047E-03 4.766476899E-02 -1.177321792E+00 5.853671115E-03
 -2.447947860E-01 -1.000000047E-03 4.768989608E-02 -1.181573033E+00 5.875099450E-03
 -2.448010296E-01 -1.000000047E-03 4.767765477E-02 -1.178852201E+00 5.866184365E-03
 -2.001511306E-01 -1.000000047E-03 6.840573251E-02 -1.043067813E+00 4.989337642E-03
 -1.968487948E-01 -1.000000047E-03 6.893208623E-02 -9.932924509E-01 4.871358164E-03
 -1.960638463E-01 -1.000000047E-03 6.904114783E-02 -9.864676595E-01 4.869247321E-03
 -1.894283295E-01 -1.000000047E-03 6.989370286E-02 -9.557806253E-01 4.714455921E-03
 -1.816968620E-01 -1.000000047E-03 7.065831125E-02 -9.128556848E-01 4.524226300E-03
 7.364739180E-01 -1.000000047E-03 -1.295327991E-01 4.011732638E-01 5.106444005E-04
 7.348049283E-01 -1.000000047E-03 -1.289829314E-01 4.035096765E-01 1.632751082E-04
 7.363634109E-01 -1.000000047E-03 -1.294963658E-01 4.021912813E-01 4.579519446E-04
 7.304752469E-01 -1.000000047E-03 -1.275590062E-01 3.943777978E-01 -1.355129207E-04
 7.259064317E-01 -1.000000047E-03 -1.260606647E-01 3.891525269E-01 -2.045668080E-04
 7.233825326E-01 -1.000000047E-03 -1.252362728E-01 3.867660463E-01 -2.120223362E-04
 -1.742546558E-01 -1.000000047E-03 7.120723277E-02 -8.700971603E-01 4.131677095E-03
 -1.799786091E-01 -1.000000047E-03 7.082190365E-02 -9.000040889E-01 4.493927117E-03
 9.860642254E-02 -1.000000047E-03 4.316584393E-02 -1.989221126E-01 5.125806783E-04
 1.036363840E-01 -1.000000047E-03 4.221611470E-02 -1.902538985E-01 4.820746253E-04
 1.228242740E-01 -1.000000047E-03 3.835691512E-02 -1.613389552E-01 4.292118538E-04
 2 3
 3 120
 120 151
 151 153
 153 152
 152 31
 31 42
 42 43
 43 52
 52 154
 154 155
 155 156
 156 59
 59 66
 66 67
 67 74
 74 75
 75 82
 82 83
 83 88
 88 89
 89 105
 105 104
 104 107
 107 106
 106 109
 109 108
 108 110
 110 111
 111 112
 112 113
 113 114
 114 115
 115 116
 116 117
 117 119
 119 118
 118 103
 103 102
 102 101
 101 100
 100 99
 99 98
 98 96
 96 97
 97 95
 95 94
 94 93
 93 92
 92 91
 91 159
 159 158
 158 157
 157 90
 90 87
 87 86
 86 85
 85 84
 84 81
 81 80
 80 79
 79 78
 78 77
 77 76
 76 73
 73 72
 72 71
 71 70
 70 69
 69 68
 68 65
 65 64
 64 63
 63 62
 62 61
 61 60
 60 58
 58 57
 57 56
 56 55
 55 54
 54 53
 53 51
 51 50
 50 49
 49 48
 48 47
 47 46
 46 45
 45 44
 44 41
 41 40
 40 39
 39 38
 38 37
 37 36
 36 35
 35 34
 34 33
 33 32
 32 30
 30 29
 29 28
 28 27
 27 26
 26 25
 25 24
 24 23
 23 22
 22 21
 21 20
 20 147
 147 149
 149 150
 150 148
 148 122
 122 19
 19 18
 18 121
 121 125
 125 126
 126 124
 124 123
 123 17
 17 16
 16 127
 127 130
 130 131
 131 129
 129 128
 128 15
 15 14
 14 132
 132 135
 135 136
 136 134
 134 133
 133 13
 13 12
 12 137
 137 140
 140 141
 141 139
 139 138
 138 11
 11 10
 10 143
 143 145
 145 146
 146 144
 144 142
 142 9
 9 7
 7 8
 8 5
 5 6
 6 4
 4 1
 266 264
 264 265
 265 262
 262 263
 263 260
 260 261
 261 245
 245 244
 244 239
 239 238
 238 231
 231 230
 230 223
 223 222
 222 218
 218 310
 310 309
 309 308
 308 214
 214 205
 205 204
 204 193
 193 306
 306 307
 307 305
 305 166
 166 165
 165 161
 274 275
 275 273
 273 272
 272 271
 271 270
 270 269
 269 268
 268 267
 267 266
 254 255
 255 256
 256 257
 257 258
 258 259
 259 274
 251 253
 253 252
 252 254
 201 202
 202 203
 203 206
 206 207
 207 208
 208 209
 209 210
 210 211
 211 212
 212 213
 213 215
 215 216
 216 217
 217 300
 300 301
 301 302
 302 303
 303 304
 304 312
 312 311
 311 219
 219 220
 220 221
 221 224
 224 225
 225 226
 226 227
 227 228
 228 229
 229 232
 232 233
 233 234
 234 235
 235 236
 236 237
 237 240
 240 241
 241 242
 242 243
 243 246
 246 313
 313 314
 314 315
 315 247
 247 248
 248 249
 249 250
 250 251
 177 179
 179 180
 180 181
 181 182
 182 183
 183 184
 184 185
 185 186
 186 187
 187 188
 188 189
 189 190
 190 191
 191 192
 192 194
 194 195
 195 196
 196 197
 197 198
 198 199
 199 200
 200 201
 178 177
 291 298
 298 299
 299 297
 297 296
 296 169
 169 168
 168 293
 293 295
 295 294
 294 292
 292 167
 167 163
 163 164
 164 162
 162 160
 280 278
 278 277
 277 175
 175 174
 174 281
 281 284
 284 285
 285 283
 283 282
 282 173
 173 172
 172 286
 286 289
 289 290
 290 288
 288 287
 287 171
 171 170
 170 291
 176 178
 279 280
 276 279
 176 276
ZONE T="Slice: Y=-0.035"
 STRANDID=0, SOLUTIONTIME=0
 Nodes=298, Elements=296, ZONETYPE=FELineSeg
 DATAPACKING=POINT
 DT=(SINGLE SINGLE SINGLE SINGLE SINGLE )
 -2.462019324E-01 -3.500000015E-02 4.341204464E-02 -4.472359419E-01 1.721293200E-03
 -2.463018894E-01 -3.500000015E-02 4.271684587E-02 -3.723733723E-01 1.424452988E-03
 7.386057973E-01 -3.500000015E-02 -1.302361339E-01 3.588206172E-01 4.984476604E-03
 7.376314998E-01 -3.500000015E-02 -1.302065998E-01 4.083424211E-01 3.605198581E-03
 -2.463463098E-01 -3.500000015E-02 4.239345714E-02 -3.340355158E-01 1.301112236E-03
 -2.430874407E-01 -3.500000015E-02 2.999063767E-02 9.484874606E-01 -1.196468365E-03
 -2.459925562E-01 -3.500000015E-02 3.685266897E-02 4.937932491E-01 -1.589186257E-03