TITLE     = "tecplot geometry and solution file"
VARIABLES = "x"
"y"
"z"
"cp"
"cf_x"
ZONE T="FUN3D, HM Y=-0.001"
 STRANDID=0, SOLUTIONTIME=0
 Nodes=1998, Elements=1996, ZONETYPE=FELineSeg
 DATAPACKING=BLOCK
 DT=(SINGLE SINGLE SINGLE SINGLE SINGLE )
 -2.462019324E-01 -2.462156564E-01 7.386057973E-01 7.385025024E-01 -2.462358922E-01
 -2.462436706E-01 -2.462549508E-01 -2.462623268E-01 -2.462241054E-01 -2.462160289E-01
 -2.462036610E-01 -2.461951822E-01 -2.461823225E-01 -2.461735606E-01 -2.461601347E-01
 -2.461509556E-01 -2.461370677E-01 -2.461276054E-01 -2.461131513E-01 -2.461032867E-01
 -2.459977716E-01 -2.460089922E-01 -2.460254729E-01 -2.460362762E-01 -2.459808737E-01
 -2.459694147E-01 -2.459519655E-01 -2.459401339E-01 -2.458150089E-01 -2.458281666E-01
 -2.458475232E-01 -2.458602190E-01 -2.457952648E-01 -2.457818985E-01 -2.457616031E-01
 -2.457478344E-01 -2.457271665E-01 -2.457131892E-01 -2.456919700E-01 -2.456776053E-01
 -2.456560284E-01 -2.456414551E-01 -2.456193566E-01 -2.456043810E-01 -2.454491854E-01
 -2.454653084E-01 -2.454891652E-01 -2.455048859E-01 -2.454250008E-01 -2.454087287E-01
 -2.453840375E-01 -2.453673482E-01 -2.451954484E-01 -2.452132106E-01 -2.452395707E-01
 -2.452569157E-01 -2.450129092E-01 -2.450317293E-01 -2.450596392E-01 -2.450780571E-01
 -2.449847311E-01 -2.449657917E-01 -2.449371517E-01 -2.449177802E-01 -2.448888868E-01
 -2.448693961E-01 -2.448400408E-01 -2.448201776E-01 -2.447905242E-01 -2.447705716E-01
 -2.447201163E-01 -2.447404414E-01 -2.446897179E-01 -2.446693033E-01 -2.446384430E-01
 -2.446176559E-01 -2.440709472E-01 -2.440939546E-01 -2.440365106E-01 -2.440135628E-01
 -2.441281825E-01 -2.441508621E-01 -2.441846430E-01 -2.442072630E-01 -2.442408651E-01
 -2.442630678E-01 -2.444056571E-01 -2.444272935E-01 -2.444595546E-01 -2.444811165E-01
 -2.443731427E-01 -2.443514168E-01 -2.442962676E-01 -2.443185449E-01 -2.435949445E-01
 -2.436195463E-01 -2.436562777E-01 -2.436802983E-01 -2.460883707E-01 -2.460782230E-01
 -2.455819100E-01 -2.455667704E-01 -2.453423440E-01 -2.453255206E-01 -2.451687902E-01
 -2.451509237E-01 -2.445865273E-01 -2.445654720E-01 -2.445340604E-01 -2.445129603E-01
 -2.452999800E-01 -2.452827692E-01 -2.455437779E-01 -2.455282360E-01 -2.460627407E-01
 -2.460522056E-01 -2.435580492E-01 -2.435333133E-01 -2.451237589E-01 -2.451054752E-01
 -2.439785898E-01 -2.439555675E-01 -2.438969761E-01 -2.439198494E-01 -2.438606322E-01
 -2.438374609E-01 -2.437168509E-01 -2.437406033E-01 -2.459221631E-01 -2.459101379E-01
 -2.434959561E-01 -2.434707582E-01 -2.434331030E-01 -2.434077561E-01 -2.458791435E-01
 -2.458915859E-01 -2.438006103E-01 -2.437774688E-01 -2.433694750E-01 -2.433436066E-01
 -2.433048487E-01 -2.432787269E-01 -2.432392091E-01 -2.432124764E-01 -2.431723773E-01
 -2.431453615E-01 -2.431044728E-01 -2.430768162E-01 -2.430353314E-01 -2.430073619E-01
 -2.462730259E-01 -2.429650724E-01 -2.429364622E-01 -2.428935766E-01 -2.428646535E-01
 -2.428209186E-01 -2.427913398E-01 -2.427469641E-01 -2.427170426E-01 -2.426717579E-01
 -2.426411211E-01 -2.425951213E-01 -2.425641119E-01 -2.425171584E-01 -2.424853891E-01
 -2.424376458E-01 -2.424054593E-01 -2.423567027E-01 -2.423237562E-01 -2.422741205E-01
 -2.422407866E-01 -2.421900630E-01 -2.421558946E-01 -2.421043366E-01 -2.420697063E-01
 7.384926677E-01 7.384810448E-01 7.383744717E-01 7.382699251E-01 7.382521033E-01
 7.382323742E-01 7.381173968E-01 7.379998565E-01 7.379788756E-01 7.379586101E-01
 7.378240228E-01 7.376642823E-01 7.376331687E-01 7.376063466E-01 7.374141216E-01
 7.373493910E-01 7.372084260E-01 7.371230125E-01 7.369810939E-01 7.368853688E-01
 7.367337346E-01 7.366302013E-01 7.364671826E-01 7.363559604E-01 7.361819744E-01
 7.360625863E-01 7.358747125E-01 7.357463241E-01 7.355452776E-01 7.354076505E-01
 7.351902723E-01 7.350422144E-01 7.348095775E-01 7.346506715E-01 7.343987823E-01
 7.342271209E-01 7.339567542E-01 7.337710857E-01 7.334765196E-01 7.332730293E-01
 7.329576015E-01 7.327355742E-01 7.324021459E-01 7.321645617E-01 7.318280935E-01
 7.315734029E-01 -2.420170903E-01 -2.419816107E-01 -2.419280410E-01 -2.418921143E-01
 -2.418372333E-01 -2.418004721E-01 -2.417444885E-01 -2.417072207E-01 -2.416500896E-01
 -2.416118532E-01 -2.415539324E-01 -2.415151596E-01 -2.414561808E-01 -2.414164543E-01
 -2.413566411E-01 -2.413164973E-01 -2.412556112E-01 -2.412146032E-01 -2.411530167E-01
 -2.411116362E-01 -2.410490066E-01 -2.410067320E-01 -2.409433573E-01 -2.409006953E-01
 -2.408362180E-01 -2.407926470E-01 -2.407273501E-01 -2.406833917E-01 -2.406169474E-01
 -2.405720502E-01 -2.405047417E-01 -2.404594570E-01 -2.403908968E-01 -2.403446883E-01
 -2.402751744E-01 -2.402285337E-01 -2.401577532E-01 -2.401100844E-01 -2.400383949E-01
 -2.399902195E-01 -2.399172634E-01 -2.398680001E-01 -2.397940904E-01 -2.397443056E-01
 -2.396690398E-01 -2.396181375E-01 -2.395417839E-01 -2.394903302E-01 -2.394125313E-01
 -2.393598855E-01 -2.392809242E-01 -2.392276675E-01 -2.391471416E-01 -2.390926182E-01
 -2.390107363E-01 -2.389554679E-01 -2.388718277E-01 -2.388151884E-01 -2.387301028E-01
 -2.386726886E-01 -2.385858297E-01 -2.385270298E-01 -2.384387255E-01 -2.383791059E-01
 -2.382889241E-01 -2.382277995E-01 -2.381358892E-01 -2.380737960E-01 -2.379797101E-01
 -2.379159331E-01 -2.378198653E-01 -2.377549559E-01 -2.376565337E-01 -2.375897914E-01
 -2.374892533E-01 -2.374212891E-01 -2.373182774E-01 -2.372483909E-01 -2.371431589E-01
 -2.370720506E-01 -2.369643003E-01 -2.368912697E-01 -2.367813587E-01 -2.367071956E-01
 -2.365947962E-01 -2.365187407E-01 -2.364043295E-01 -2.363272309E-01 -2.362104654E-01
 -2.361315340E-01 -2.360129356E-01 -2.359330207E-01 -2.358120829E-01 -2.357302755E-01
 -2.356074005E-01 -2.355245501E-01 -2.353991866E-01 -2.353143841E-01 -2.351870388E-01
 -2.351011932E-01 -2.349713445E-01 -2.348835170E-01 -2.347516418E-01 -2.346627265E-01
 -2.345281988E-01 -2.344371378E-01 -2.343003452E-01 -2.342080474E-01 -2.340683639E-01
 -2.339737862E-01 -2.338316739E-01 -2.337357700E-01 -2.335906476E-01 -2.334923595E-01
 -2.333446890E-01 -2.332450300E-01 -2.330941856E-01 -2.329920083E-01 -2.328385115E-01
 -2.327347398E-01 -2.325780988E-01 -2.324714959E-01 7.312190533E-01 7.309492826E-01
 7.305532694E-01 7.302624583E-01 7.298207283E-01 7.295119166E-01 7.290240526E-01
 7.286960483E-01 7.281723022E-01 7.278245687E-01 7.272589803E-01 7.268876433E-01
 7.262824774E-01 7.258851528E-01 7.252305746E-01 7.248038650E-01 7.241030931E-01
 7.236453295E-01 7.228870392E-01 7.223942280E-01 7.215821743E-01 7.210512757E-01
 7.201701999E-01 7.195927501E-01 7.186471820E-01 7.180178761E-01 7.170022130E-01
 7.163167000E-01 7.152645588E-01 7.145250440E-01 7.134304643E-01 -2.462198585E-01
 -2.462862879E-01 -2.462929487E-01 -2.462759167E-01 -2.462691516E-01 -2.463528216E-01
 -2.463475168E-01 -2.463392764E-01 -2.463335842E-01 -2.463604212E-01 -2.463652939E-01
 -2.463723421E-01 -2.463768423E-01 -2.463028580E-01 -2.463093549E-01 -2.464130819E-01
 -2.464101613E-01 -2.464054674E-01 -2.464021891E-01 -2.464171797E-01 -2.464196831E-01
 -2.463064343E-01 -2.463127375E-01 -2.462967932E-01 -2.462902665E-01 -2.464231849E-01
 -2.464253306E-01 -2.464282364E-01 -2.464299798E-01 -2.464323193E-01 -2.464336902E-01
 -2.464354336E-01 -2.464364022E-01 -2.464375794E-01 -2.464381754E-01 -2.464387566E-01
 -2.464389503E-01 -2.464389652E-01 -2.464387715E-01 -2.464284897E-01 -2.464302182E-01
 -2.464324981E-01 -2.464338392E-01 -2.464256287E-01 -2.464235425E-01 -2.464201003E-01
 -2.464176118E-01 -2.464136183E-01 -2.464107573E-01 -2.464061975E-01 -2.464029491E-01
 -2.463362217E-01 -2.463416755E-01 -2.463496476E-01 -2.463547885E-01 -2.463218272E-01
 -2.463276982E-01 -2.463832647E-01 -2.463873476E-01 -2.464382201E-01 -2.464376539E-01
 -2.463978082E-01 -2.463942170E-01 -2.462584674E-01 -2.462523729E-01 -2.462799698E-01
 -2.464365065E-01 -2.464355528E-01 -2.463187873E-01 -2.463247925E-01 -2.463932186E-01
 -2.463969141E-01 -2.463884950E-01 -2.463845015E-01 -2.463622391E-01 -2.463669628E-01
 -2.463781685E-01 -2.463738769E-01 -2.462275922E-01 -2.462406754E-01 -2.462370545E-01
 2.285455316E-01 2.265620083E-01 2.314881086E-01 2.334266305E-01 4.849106371E-01
 4.868849218E-01 4.819301665E-01 4.799710810E-01 3.873714805E-01 3.854099512E-01
 3.903337121E-01 3.922820091E-01 4.520399868E-01 4.500688314E-01 4.550216496E-01
 4.569804072E-01 4.201769531E-01 4.221460223E-01 4.171932936E-01 4.152366519E-01
 3.257505298E-01 3.277101517E-01 3.227760196E-01 3.208317161E-01 3.575574756E-01
 3.555950820E-01 3.605396152E-01 3.624908030E-01 2.929759324E-01 2.910231054E-01
 2.959451377E-01 2.978862822E-01 4.898843169E-01 4.918462634E-01 4.251436293E-01
 4.271017015E-01 4.470702410E-01 4.451119304E-01 2.612366080E-01 2.631822526E-01
 2.582595944E-01 2.563262880E-01 4.769652784E-01 4.749918878E-01 3.952715695E-01
 3.972393572E-01 3.824245632E-01 3.804728687E-01 3.526001573E-01 3.506495655E-01
 3.307040632E-01 3.326531053E-01 4.599869251E-01 4.619660378E-01 2.880321741E-01
 2.860913873E-01 4.122272730E-01 4.102497995E-01 2.661720514E-01 2.681082785E-01
 4.948565364E-01 4.968359470E-01 3.178268969E-01 3.158672452E-01 4.301063716E-01
 4.320894182E-01 3.654996455E-01 3.674734533E-01 3.008848131E-01 3.028483689E-01
 4.421024323E-01 4.401254356E-01 4.719664156E-01 4.699888527E-01 5.048732162E-01
 5.068439245E-01 5.098871589E-01 5.118405223E-01 4.649964869E-01 4.669573009E-01
 4.998764992E-01 5.018386245E-01 2.364076674E-01 2.383550406E-01 4.002537727E-01
 4.022285938E-01 3.476458192E-01 3.456700146E-01 3.774693012E-01 3.754928410E-01
 4.351232648E-01 4.370827675E-01 4.072182178E-01 4.052596390E-01 3.356636465E-01
 3.376333117E-01 3.704914749E-01 3.724579513E-01 3.426331282E-01 3.406805396E-01
 2.711125016E-01 2.730772495E-01 3.128351271E-01 3.108699024E-01 3.058821857E-01
 3.078301251E-01 2.533142865E-01 2.513598204E-01 2.830789983E-01 2.811177969E-01
 2.761206031E-01 2.780639529E-01 2.413773984E-01 2.433290035E-01 2.483126074E-01
 2.463747263E-01 2.236328721E-01 2.216593474E-01 2.187253535E-01 5.148689151E-01
 7.126405239E-01 7.114750743E-01 7.106216550E-01 7.093248367E-01 7.084051371E-01
 7.069905400E-01 7.060102224E-01 7.044690251E-01 7.034136653E-01 7.017546296E-01
 7.006127238E-01 6.988117099E-01 6.975699067E-01 6.956815720E-01 6.943529248E-01
 6.924265027E-01 6.910645366E-01 4.239083827E-02 4.434943944E-02 3.946061060E-02
 3.752790764E-02 -7.733346522E-02 -7.924945652E-02 -7.251089811E-02 -7.444898039E-02
 1.210549474E-01 1.230350658E-01 1.181005538E-01 1.161464304E-01 -3.574481606E-02
 -3.379360586E-02 -3.865988925E-02 -4.060776532E-02 -6.962081790E-02 -6.769771874E-02
 -3.086947463E-02 -2.893154509E-02 -6.480129808E-02 -6.285637617E-02 -5.995817110E-02
 -5.802286044E-02 -2.601483651E-02 -2.405184321E-02 -2.113331854E-02 -1.919818297E-02
 -4.351435974E-02 -4.544181377E-02 -5.513594672E-02 -5.320923775E-02 -4.835082218E-02
 -5.029689893E-02 -1.628149860E-02 -1.433261763E-02 -1.140787918E-02 -9.457141161E-03
 1.328724474E-01 1.309067011E-01 1.358450651E-01 1.378237158E-01 1.259938329E-01
 1.279460639E-01 1.131798625E-01 1.112092063E-01 1.082488000E-01 1.062904969E-01
 1.033195555E-01 1.013439819E-01 1.407962292E-01 1.427498907E-01 1.506680548E-01
 1.526456624E-01 1.476876736E-01 1.457208395E-01 -6.517564412E-03 -4.577982705E-03
 1.556178182E-01 1.575641036E-01 5.705685169E-02 5.901694298E-02 5.410365760E-02
 5.215712637E-02 9.837467223E-02 9.642530233E-02 4.728552327E-02 4.921744019E-02
 1.605224758E-01 1.624588370E-01 8.852549642E-02 8.656218648E-02 9.346036613E-02
 9.149596840E-02 3.458389640E-02 3.263425082E-02 7.178593427E-02 7.375156879E-02
 6.881751865E-02 6.686557084E-02 2.969345637E-02 2.775537036E-02 2.480290085E-02
 2.284774370E-02 6.197271124E-02 6.390915066E-02 8.358365297E-02 8.162903786E-02
 7.672017813E-02 7.866152376E-02 1.653943211E-01 1.672847271E-01 -1.637148787E-03
 3.169542179E-04 1.989569888E-02 1.796667650E-02 1.012022048E-02 8.170600049E-03
 1.307319663E-02 1.501857955E-02 5.212583579E-03 3.279496217E-03 2.020025849E-01
 2.039525360E-01 1.990833879E-01 1.972047538E-01 1.701575816E-01 1.719760895E-01
 1.943241060E-01 1.924953759E-01 1.747592837E-01 1.765149832E-01 1.897171885E-01
 1.879935414E-01 1.792105138E-01 1.808959991E-01 1.852670163E-01 1.835917234E-01
 -8.207926154E-02 -8.395389467E-02 2.069132626E-01 2.088846564E-01 2.118353099E-01
 -8.667051047E-02 5.168027282E-01 5.198255777E-01 -2.323120087E-01 -2.322038114E-01
 -2.320404798E-01 -2.319296598E-01 -2.317630053E-01 -2.316503525E-01 -2.314797193E-01
 -2.313639522E-01 -2.311896831E-01 -2.310718298E-01 -2.308933139E-01 -2.307721227E-01
 -2.305895239E-01 -2.304659039E-01 -2.302784920E-01 -2.301511019E-01 -2.299589217E-01
 -2.298288196E-01 -2.296314687E-01 -2.294974625E-01 -2.292954624E-01 -2.291588336E-01
 -2.289517969E-01 -2.288113087E-01 -2.285998017E-01 -2.284568101E-01 -2.282402515E-01
 -2.280934006E-01 -2.278724313E-01 -2.277231514E-01 -2.274971157E-01 -2.273438573E-01
 -2.271133214E-01 -2.269575596E-01 -2.267216742E-01 -2.265617251E-01 -2.263209522E-01
 -2.261583209E-01 -2.259119004E-01 -2.257449180E-01 -2.254935205E-01 -2.253238112E-01
 -2.250666916E-01 -2.248924971E-01 -2.246303260E-01 -2.244533002E-01 -2.241851687E-01
 -2.240034044E-01 -2.237298191E-01 -2.235448956E-01 -2.232647985E-01 -2.230746895E-01
 -2.227881998E-01 -2.225942761E-01 -2.223002017E-01 -2.221003622E-01 -2.217986137E-01
 -2.215943038E-01 -2.212840766E-01 -2.210733742E-01 -2.207551450E-01 -2.205399424E-01
 -2.202133387E-01 -2.199918479E-01 -2.196578383E-01 -2.194322050E-01 -2.190901339E-01
 -2.188582569E-01 -2.185088843E-01 -2.182728052E-01 -2.179149985E-01 -2.176722586E-01
 -2.173063606E-01 -2.170589417E-01 -2.166838199E-01 -2.164291441E-01 -2.160450071E-01
 -2.157849371E-01 -2.153903842E-01 -2.151221633E-01 -2.147170007E-01 -2.144425660E-01
 -2.140259147E-01 -2.137428075E-01 -2.133153528E-01 -2.130258977E-01 -2.125868350E-01
 -2.122882009E-01 -2.118371278E-01 -2.115310431E-01 -2.110661864E-01 -2.107495368E-01
 -2.102700174E-01 -2.099447101E-01 -2.094498277E-01 -2.091133893E-01 -2.086038291E-01
 -2.082592994E-01 -2.077353150E-01 -2.073803097E-01 -2.068435848E-01 -2.064813077E-01
 -2.059310675E-01 -2.055578530E-01 -2.049941719E-01 -2.046117336E-01 -2.040327936E-01
 -2.036364526E-01 -2.030439824E-01 -2.026352286E-01 -2.020352036E-01 -2.016194016E-01
 2.167564929E-01 2.137937546E-01 6.890558004E-01 6.876390576E-01 6.854733229E-01
 6.840023398E-01 6.816995740E-01 6.801818609E-01 6.777923107E-01 6.762358546E-01
 6.737774014E-01 6.721612215E-01 6.696029305E-01 6.679241061E-01 6.652452350E-01
 6.634895205E-01 6.606794000E-01 6.588613987E-01 6.559561491E-01 6.540775895E-01
 6.115048528E-01 6.095349193E-01 6.144921184E-01 6.164506674E-01 6.413832903E-01
 6.394350529E-01 6.443495750E-01 6.462801695E-01 6.065340638E-01 6.045760512E-01
 6.015687585E-01 5.995878577E-01 6.364327073E-01 6.344789267E-01 6.194630861E-01
 6.214454174E-01 5.895761847E-01 5.915417671E-01 5.865365863E-01 5.845726132E-01
 5.965501070E-01 5.945963264E-01 6.492315531E-01 6.511224508E-01 6.314620972E-01
 6.295011044E-01 6.244782209E-01 6.264250278E-01 5.815546513E-01 5.796082616E-01
 5.467096567E-01 5.447360277E-01 5.496894121E-01 5.516501069E-01 5.417351127E-01
 5.397772193E-01 5.546529889E-01 5.566318035E-01 5.746234655E-01 5.766036510E-01
 5.716214776E-01 5.696597099E-01 5.248095393E-01 5.267651081E-01 5.217870474E-01
 5.367634892E-01 5.347753167E-01 5.596498847E-01 5.616148114E-01 5.666315556E-01
 5.646606684E-01 5.297896266E-01 5.317452550E-01 -2.010163665E-01 -2.005857080E-01
 -1.999670714E-01 -1.995303780E-01 -1.988845468E-01 -1.984321326E-01 -1.977557093E-01
 -1.972908825E-01 -1.965890676E-01 -1.961094737E-01 -1.953845322E-01 -1.948925108E-01
 -1.941443831E-01 -1.936355084E-01 -1.928648204E-01 -1.923428476E-01 -1.915493459E-01
 -1.910102665E-01 -1.901949197E-01 -1.896432191E-01 -1.888054013E-01 -1.882365048E-01
 -1.873771250E-01 -1.867952347E-01 -1.859117895E-01 -1.853109747E-01 -1.844020933E-01
 -1.837861240E-01 -1.828497499E-01 -1.822132170E-01 -1.812501997E-01 -1.805980206E-01
 -1.796077192E-01 -1.789342314E-01 -1.779164523E-01 -1.772256345E-01 -1.761772484E-01
 -1.754617244E-01 -1.743793786E-01 -1.736413687E-01 -1.725222766E-01 -1.717542559E-01
 -1.705995649E-01 -1.698008776E-01 -1.686252803E-01 -1.678004712E-01 -1.665939391E-01
 -1.657592654E-01 -1.645302624E-01 -1.636556685E-01 -1.623629779E-01 -1.614718884E-01
 -1.601334512E-01 -1.592080891E-01 -1.578164995E-01 -1.568780243E-01 -1.554566175E-01
 -1.544827670E-01 -1.530089974E-01 -1.520166397E-01 -1.505070925E-01 -1.494718194E-01
 -1.479009837E-01 -1.468424201E-01 -1.452286690E-01 -1.441205740E-01 -1.424367726E-01
 -1.413027942E-01 -1.395747662E-01 -1.383902133E-01 -1.365942955E-01 -1.353849024E-01
 -1.335449666E-01 -1.322823763E-01 -1.303673089E-01 -1.290772408E-01 -1.271129698E-01
 -1.257675290E-01 -1.237291098E-01 -1.223583221E-01 -1.202770695E-01 -1.188522056E-01
 -1.166986451E-01 -1.152474284E-01 -1.130455956E-01 -1.115327999E-01 -1.092433035E-01
 -1.076976731E-01 -1.053476706E-01 -1.037329957E-01 -1.012858450E-01 -9.963728487E-02
 -9.713403136E-02 -9.541989118E-02 -9.284455329E-02 -9.110394120E-02 -8.844149858E-02
 -2.462019324E-01 -2.461877018E-01 7.386057973E-01 7.385076880E-01 -2.461833507E-01
 -2.460886389E-01 -2.460988015E-01 -2.461139560E-01 -2.461233884E-01 -2.459128201E-01
 -2.459257096E-01 -2.459446341E-01 -2.459570616E-01 -2.460727543E-01 -2.460618615E-01
 -2.457762957E-01 -2.457907051E-01 -2.458119243E-01 -2.458258718E-01 -2.457545847E-01
 -2.457398921E-01 -2.457175553E-01 -2.457023710E-01 -2.455433756E-01 -2.455601096E-01
 -2.455846071E-01 -2.456007302E-01 -2.454145700E-01 -2.454323471E-01 -2.454585284E-01
 -2.454758734E-01 -2.453879267E-01 -2.453699410E-01 -2.453426421E-01 -2.453241646E-01
 -2.452964485E-01 -2.452777624E-01 -2.450826615E-01 -2.451026887E-01 -2.451326400E-01
 -2.451525331E-01 -2.450522780E-01 -2.450317144E-01 -2.450007647E-01 -2.449798435E-01
 -2.449482977E-01 -2.449271679E-01 -2.448952347E-01 -2.448735833E-01 -2.448410243E-01
 -2.448191792E-01 -2.447862476E-01 -2.447639108E-01 -2.447303534E-01 -2.447078377E-01
 -2.446739078E-01 -2.446509153E-01 -2.444150746E-01 -2.444394231E-01 -2.444753647E-01
 -2.444990873E-01 -2.443787754E-01 -2.443543226E-01 -2.443174124E-01 -2.442924827E-01
 -2.442552298E-01 -2.442301810E-01 -2.441923469E-01 -2.441668063E-01 -2.441286594E-01
 -2.441029996E-01 -2.440642715E-01 -2.440381050E-01 -2.438396364E-01 -2.438666672E-01
 -2.439066917E-01 -2.439333349E-01 -2.437993139E-01 -2.437722385E-01 -2.434947044E-01
 -2.435230911E-01 -2.435652912E-01 -2.435932457E-01 -2.434523255E-01 -2.434238642E-01
 -2.433809340E-01 -2.433520108E-01 -2.433088273E-01 -2.432798445E-01 -2.432361245E-01
 -2.432066798E-01 -2.431627363E-01 -2.431332320E-01 -2.430887520E-01 -2.430587709E-01
 -2.427865714E-01 -2.427556068E-01 -2.428323328E-01 -2.428628802E-01 -2.427092791E-01
 -2.426782995E-01 -2.426317930E-01 -2.426003665E-01 -2.425533235E-01 -2.425218970E-01
 -2.424746901E-01 -2.424427867E-01 -2.423950583E-01 -2.423631698E-01 -2.423152775E-01
 -2.422829270E-01 -2.422345281E-01 -2.422021776E-01 -2.421536297E-01 -2.421208322E-01
 -2.420717776E-01 -2.420390099E-01 -2.419897914E-01 -2.419565618E-01 -2.400208265E-01
 -2.400582582E-01 -2.399652302E-01 -2.399281412E-01 -2.417400628E-01 -2.417061776E-01
 -2.416555583E-01 -2.416215539E-01 -2.401136607E-01 -2.401504219E-01 -2.402057648E-01
 -2.402427047E-01 -2.458933741E-01 -2.458802015E-01 -2.414511442E-01 -2.414857596E-01
 -2.415367961E-01 -2.415708899E-01 -2.413997203E-01 -2.413653880E-01 -2.413135022E-01
 -2.412787080E-01 -2.404797971E-01 -2.405161858E-01 -2.404253632E-01 -2.403887510E-01
 -2.405705303E-01 -2.406065017E-01 -2.406604290E-01 -2.406966835E-01 -2.412267178E-01
 -2.411916256E-01 -2.411395758E-01 -2.411044687E-01 -2.410516292E-01 -2.410168499E-01
 -2.409637719E-01 -2.409281731E-01 -2.394570261E-01 -2.394953370E-01 -2.395523041E-01
 -2.395901084E-01 -2.456795722E-01 -2.456641048E-01 -2.455183119E-01 -2.455014437E-01
 -2.452493757E-01 -2.452302128E-01 -2.446163744E-01 -2.445932031E-01 -2.439989746E-01
 -2.439728081E-01 -2.430140823E-01 -2.429841161E-01 -2.419068515E-01 -2.418735176E-01
 -2.418235838E-01 -2.417904288E-01 -2.408749759E-01 -2.408392578E-01 -2.396465987E-01
 -2.396844774E-01 -2.397409827E-01 -2.397784591E-01 -2.402978241E-01 -2.403340638E-01
 -2.407860011E-01 -2.407502532E-01 -2.429084480E-01 -2.429387718E-01 -2.456406653E-01
 -2.456248254E-01 -2.458601147E-01 -2.458464503E-01 -2.459753305E-01 -2.459874600E-01
 -2.460052520E-01 -2.460169196E-01 -2.460452169E-01 -2.460340708E-01 -2.461376041E-01
 -2.461454570E-01 -2.461746186E-01 -2.461597770E-01 -2.461640835E-01 -2.452013940E-01
 -2.451820076E-01 -2.445582896E-01 -2.445346564E-01 -2.398719788E-01 -2.398350686E-01
 -2.437313050E-01 -2.437037528E-01 -2.436624169E-01 -2.436349094E-01 -2.393998951E-01
 -2.393615991E-01 -2.393037975E-01 -2.392649353E-01 -2.392066568E-01 -2.391677201E-01
 -2.391085029E-01 -2.390688956E-01 -2.390090078E-01 -2.389691174E-01 -2.389083058E-01
 -2.388675809E-01 -2.388061136E-01 -2.387647629E-01 -2.387025505E-01 -2.386608273E-01
 -2.385978848E-01 -2.385549694E-01 -2.384909540E-01 -2.384480983E-01 -2.383830696E-01
 -2.383393347E-01 -2.382736057E-01 -2.382295132E-01 -2.381627858E-01 -2.381177992E-01
 -2.380503714E-01 -2.380050272E-01 -2.379365116E-01 -2.378902882E-01 -2.378210127E-01
 -2.377744615E-01 -2.377040386E-01 -2.376566231E-01 -2.375853658E-01 -2.375375926E-01
 -2.374652177E-01 -2.374164760E-01 -2.373432815E-01 -2.372941822E-01 -2.372197360E-01
 -2.371696830E-01 -2.370943576E-01 -2.370439619E-01 -2.369673848E-01 -2.369160205E-01
 7.384983301E-01 7.384872437E-01 7.383860350E-01 7.382866740E-01 7.382698059E-01
 7.382510304E-01 7.381417751E-01 7.380301356E-01 7.380101681E-01 7.379909158E-01
 7.378630638E-01 7.377113104E-01 7.376817465E-01 7.376562357E-01 7.374736667E-01
 7.374121547E-01 7.372782230E-01 7.371970415E-01 7.370622158E-01 7.369712591E-01
 7.368271947E-01 7.367288470E-01 7.365739346E-01 7.364682555E-01 7.363029122E-01
 7.361894846E-01 7.360109687E-01 7.358889580E-01 7.356979847E-01 7.355671525E-01
 7.353606224E-01 7.352199554E-01 7.349989414E-01 7.348480821E-01 7.346088886E-01
 7.344464064E-01 7.341902256E-01 7.340152264E-01 7.337367535E-01 7.335460186E-01
 7.332467437E-01 7.330386639E-01 7.327182293E-01 7.324922085E-01 7.321609855E-01
 7.319195271E-01 7.315710187E-01 3.426067829E-01 3.445068598E-01 3.397321701E-01
 3.378484547E-01 2.478945255E-01 2.460029125E-01 2.507848442E-01 2.526641488E-01
 4.937280715E-01 4.918303490E-01 4.965870380E-01 4.984678328E-01 4.341584444E-01
 4.360621274E-01 4.312780201E-01 4.293885529E-01 4.023904204E-01 4.004863203E-01
 4.052720368E-01 4.071634412E-01 4.649302065E-01 4.630286396E-01 4.678117335E-01
 4.697009027E-01 3.715505600E-01 3.734539449E-01 3.686564863E-01 3.667649925E-01
 3.107776344E-01 3.088765442E-01 3.136750162E-01 3.155648112E-01 2.798321843E-01
 2.817323506E-01 2.769329846E-01 2.750452161E-01 4.601348937E-01 4.582442939E-01
 4.889480472E-01 4.870600104E-01 5.013468266E-01 5.032364130E-01 4.389592707E-01
 4.408513010E-01 3.763585687E-01 3.782511055E-01 3.975851536E-01 3.956924975E-01
 3.474072516E-01 3.492992222E-01 4.264812171E-01 4.245770872E-01 4.100691080E-01
 4.119800329E-01 2.234038264E-01 2.213445902E-01 2.181468159E-01 2.159785032E-01
 3.349454999E-01 3.330458105E-01 3.059632182E-01 3.040725887E-01 4.726065099E-01
 4.745132923E-01 2.846499085E-01 2.865395844E-01 4.553446770E-01 4.534300268E-01
 4.841624200E-01 4.822535813E-01 4.437595904E-01 4.456696212E-01 3.638421595E-01
 3.619318008E-01 3.811621666E-01 3.830793202E-01 4.774284065E-01 4.793249965E-01
 3.184912205E-01 3.204019368E-01 3.927767575E-01 3.908651471E-01 4.216485620E-01
 4.197393060E-01 4.149117172E-01 4.168049693E-01 2.430837750E-01 2.412040383E-01
 4.505013824E-01 4.486088157E-01 2.555887699E-01 2.574874759E-01 3.522207737E-01
 3.541353345E-01 3.860202730E-01 3.879150152E-01 2.721129060E-01 2.702039182E-01
 3.589928746E-01 3.570910692E-01 3.301101923E-01 3.282032907E-01 3.011437356E-01
 2.992267907E-01 3.233566880E-01 3.252505362E-01 2.894767225E-01 2.913876474E-01
 2.264519185E-01 2.284108102E-01 2.962597013E-01 2.943650186E-01 2.604514062E-01
 2.623594403E-01 2.672316730E-01 2.653379440E-01 2.382491231E-01 2.363307178E-01
 2.314225286E-01 2.333274633E-01 5.061277747E-01 5.080073476E-01 2.127138227E-01
 5.109150410E-01 7.313193083E-01 7.309497595E-01 7.306712866E-01 7.302482724E-01
 7.299564481E-01 7.294959426E-01 7.291865945E-01 7.286869884E-01 7.283571959E-01
 7.278225422E-01 7.274702787E-01 7.268920541E-01 7.265140414E-01 7.258949280E-01
 7.254896164E-01 7.248197794E-01 7.243841290E-01 7.236670256E-01 7.231994867E-01
 7.224238515E-01 7.219208479E-01 7.210909724E-01 7.205504775E-01 7.196534872E-01
 7.190710902E-01 7.181122303E-01 7.174853683E-01 7.164502144E-01 7.157732844E-01
 7.146684527E-01 7.139378786E-01 7.127469182E-01 7.119535804E-01 7.106832266E-01
 7.098196745E-01 7.084519863E-01 7.075065970E-01 7.060694695E-01 7.050467134E-01
 7.035635114E-01 7.024924755E-01 -2.368385494E-01 -2.367868423E-01 -2.367078811E-01
 -2.366552055E-01 -2.365751565E-01 -2.365221232E-01 -2.364409864E-01 -2.363868654E-01
 -2.363052219E-01 -2.362506241E-01 -2.361679226E-01 -2.361122072E-01 -2.360287309E-01
 -2.359726131E-01 -2.358879000E-01 -2.358307242E-01 -2.357451320E-01 -2.356875688E-01
 -2.356006354E-01 -2.355419695E-01 -2.354540974E-01 -2.353950143E-01 -2.353057861E-01
 -2.352455407E-01 -2.351553589E-01 -2.350946665E-01 -2.350030392E-01 -2.349411696E-01
 -2.348485291E-01 -2.347861826E-01 -2.346919924E-01 -2.346284240E-01 -2.345330715E-01
 -2.344689816E-01 -2.343720049E-01 -2.343066186E-01 -2.342085093E-01 -2.341425419E-01
 -2.340428531E-01 -2.339754999E-01 -2.338745594E-01 -2.338065803E-01 -2.337039113E-01
 -2.336345166E-01 -2.335305214E-01 -2.334604859E-01 -2.333547026E-01 -2.332832068E-01
 -2.331759185E-01 -2.331036925E-01 -2.329943031E-01 -2.329204679E-01 -2.328093350E-01
 -2.327346057E-01 -2.326212972E-01 -2.325448841E-01 -2.324298471E-01 -2.323525995E-01
 -2.322354168E-01 -2.321564257E-01 -2.320375293E-01 -2.319575548E-01 -2.318364382E-01
 -2.317544818E-01 -2.316313088E-01 -2.315481305E-01 -2.314222604E-01 -2.313369215E-01
 -2.312085330E-01 -2.311217934E-01 -2.309904248E-01 -2.309013307E-01 -2.307672501E-01
 -2.306766659E-01 -2.305395007E-01 -2.304465771E-01 -2.303068340E-01 -2.302125990E-01
 -2.300700396E-01 -2.299736291E-01 -2.298289984E-01 -2.297316194E-01 -2.295845300E-01
 -2.294851840E-01 -2.293363959E-01 -2.292362601E-01 -2.290851325E-01 -2.289830446E-01
 -2.288301289E-01 -2.287271619E-01 -2.285716385E-01 -2.284665555E-01 -2.283089161E-01
 -2.282028198E-01 -2.280424237E-01 -2.279340923E-01 -2.277715951E-01 -2.276622057E-01
 -2.274969220E-01 -2.273851931E-01 -2.272176594E-01 -2.271047682E-01 -2.269341946E-01
 -2.268188149E-01 -2.266457528E-01 -2.265291065E-01 -2.263528109E-01 -2.262335569E-01
 -2.260545939E-01 -2.259339243E-01 -8.041769266E-02 -8.213008195E-02 -8.475703001E-02
 -8.641731739E-02 -7.774449885E-02 -7.598821819E-02 -7.326723635E-02 -7.144930214E-02
 -6.867343187E-02 -6.681596488E-02 -6.398133934E-02 -6.207567081E-02 6.364418566E-02
 6.559577584E-02 6.069457531E-02 5.877018720E-02 7.828318328E-02 8.023624867E-02
 7.535311580E-02 7.340466231E-02 -3.960712254E-02 -3.763822466E-02 -4.454535246E-02
 -4.256331176E-02 2.001964152E-01 2.022202760E-01 2.052085996E-01 2.073131949E-01
 -2.021414693E-04 1.771850046E-03 -3.154913662E-03 -5.137414206E-03 -1.796146482E-02
 -1.994200982E-02 -1.500412636E-02 -1.302625705E-02 -3.469256684E-02 -3.273965418E-02
 -4.748765007E-02 -4.945487529E-02 -8.096272126E-03 -1.005894132E-02 -5.239608884E-02
 -5.435169488E-02 -5.919916555E-02 -5.727362260E-02 4.717338830E-03 6.670593750E-03
 -2.288497798E-02 -2.484803274E-02 -2.978882566E-02 -2.781163715E-02 9.619125165E-03
 1.159676816E-02 1.564152539E-01 1.583702564E-01 1.534903497E-01 1.515401602E-01
 1.417945921E-01 1.437462717E-01 1.388551891E-01 1.369310468E-01 1.466875225E-01
 1.486277580E-01 1.612957865E-01 1.632239521E-01 1.710170358E-01 1.729631573E-01
 1.680907458E-01 1.661460549E-01 1.339899898E-01 1.320554018E-01 1.454893127E-02
 1.649636403E-02 1.290978193E-01 1.271562427E-01 1.242240444E-01 1.222560853E-01
 1.758901626E-01 1.778097600E-01 1.826711595E-01 1.807378381E-01 6.854552776E-02
 7.048527896E-02 9.291857481E-02 9.487252682E-02 8.997080475E-02 8.802983165E-02
 8.316923678E-02 8.509516716E-02 1.193205044E-01 1.173818484E-01 1.095471606E-01
 1.075971946E-01 1.144450977E-01 1.124936715E-01 9.782146662E-02 9.975074977E-02
 1.046400443E-01 1.026980951E-01 5.581692606E-02 5.388087034E-02 4.896487668E-02
 5.090850219E-02 4.601577297E-02 4.404464737E-02 1.855808496E-01 1.875040382E-01
 1.946440153E-02 2.142608166E-02 4.108868167E-02 3.914578259E-02 3.126167879E-02
 2.930743247E-02 3.423029557E-02 3.618646413E-02 2.633271180E-02 2.438811958E-02
 1.972648054E-01 1.953116655E-01 1.904278100E-01 1.923662722E-01 -8.894277364E-02
 2.104989886E-01 7.009382248E-01 6.998096108E-01 6.981428266E-01 6.969316006E-01
 6.950626373E-01 6.938208938E-01 6.918309927E-01 6.905418038E-01 6.884520650E-01
 6.871163845E-01 6.849477291E-01 6.835516095E-01 6.813048720E-01 6.798523664E-01
 6.775307059E-01 6.760086417E-01 6.735868454E-01 6.719985604E-01 6.694620252E-01
 6.677985191E-01 6.651331186E-01 6.634070873E-01 6.606418490E-01 6.588548422E-01
 5.875024796E-01 5.894168019E-01 5.846434236E-01 5.827231407E-01 6.162335873E-01
 6.181190610E-01 6.133692861E-01 6.114940643E-01 5.923036337E-01 5.941993594E-01
 6.467146277E-01 6.448537707E-01 6.495552063E-01 6.513992548E-01 6.209930182E-01
 6.228657961E-01 6.086032987E-01 6.067085862E-01 6.419829726E-01 6.401208639E-01
 5.970941186E-01 5.989999175E-01 6.038060784E-01 6.019180417E-01 6.257450581E-01
 6.276404858E-01 6.372324824E-01 6.353454590E-01 6.305508614E-01 6.324229836E-01
 6.560291052E-01 6.542255878E-01 5.798870921E-01 5.779898763E-01 5.127624869E-01
 5.157048106E-01 5.175703764E-01 5.205479264E-01 5.224106312E-01 -2.257515043E-01