TITLE     = "Surface mesh and solution"
VARIABLES = "x"
"y"
"z"
"cfx"
"Cp"
DATASETAUXDATA alpha_deg="  0.0000000E+00"
DATASETAUXDATA beta_deg="  0.0000000E+00"
DATASETAUXDATA bref="  0.7500000"
DATASETAUXDATA cref="   1.000000"
DATASETAUXDATA itranflg="           0"
DATASETAUXDATA ivisc="           2"
DATASETAUXDATA mach="  0.2000000"
DATASETAUXDATA reue_mil="   4.600000"
DATASETAUXDATA sref="  0.7500000"
DATASETAUXDATA tinf_r="   521.0000"
DATASETAUXDATA xmc="  0.0000000E+00"
DATASETAUXDATA ymc="  0.0000000E+00"
DATASETAUXDATA zmc="  0.0000000E+00"
ZONE T="USM3D-ME, Pointwise_2.0, Slice: Y=-0.001"
 STRANDID=0, SOLUTIONTIME=0
 Nodes=820, Elements=803, ZONETYPE=FELineSeg
 DATAPACKING=POINT
 DT=(DOUBLE DOUBLE DOUBLE DOUBLE DOUBLE )
 7.388817442E-01 -1.000000000E-03 -6.342453218E-02 -5.919347229E-05 4.274500814E-01
 7.387299015E-01 -1.000000000E-03 -6.338897474E-02 -6.233914958E-05 4.273573316E-01
 7.379598705E-01 -1.000000000E-03 -6.320870436E-02 -7.126168281E-05 4.266621597E-01
 7.378328029E-01 -1.000000000E-03 -6.317896213E-02 -7.218302871E-05 4.262996791E-01
 7.372621614E-01 -1.000000000E-03 -6.304545674E-02 -5.639399747E-05 4.262279676E-01
 7.403772835E-01 -1.000000000E-03 -6.377501830E-02 -5.716322383E-05 4.295278778E-01
 7.284859564E-01 -1.000000000E-03 -6.100015930E-02 -2.254689771E-05 4.159894785E-01
 7.275215064E-01 -1.000000000E-03 -6.077629716E-02 -1.768230092E-05 4.149427817E-01
 7.170975568E-01 -1.000000000E-03 -5.836795930E-02 4.114487893E-05 4.033704903E-01
 7.181884615E-01 -1.000000000E-03 -5.861904571E-02 3.564463569E-05 4.045613509E-01
 7.148917480E-01 -1.000000000E-03 -5.786093921E-02 5.225350071E-05 4.009358048E-01
 7.137771249E-01 -1.000000000E-03 -5.760507879E-02 5.865875637E-05 3.996688429E-01
 7.021820934E-01 -1.000000000E-03 -5.495698664E-02 1.183320615E-04 3.871876777E-01
 7.033786950E-01 -1.000000000E-03 -5.522913434E-02 1.129360000E-04 3.885556311E-01
 6.997639552E-01 -1.000000000E-03 -5.440780947E-02 1.326600614E-04 3.846487987E-01
 6.985415004E-01 -1.000000000E-03 -5.413058144E-02 1.385007946E-04 3.834074983E-01
 6.909447693E-01 -1.000000000E-03 -5.241378032E-02 1.708989802E-04 3.755832894E-01
 6.922507053E-01 -1.000000000E-03 -5.270818132E-02 1.644272177E-04 3.769199035E-01
 6.868915198E-01 -1.000000000E-03 -5.150196117E-02 1.883998172E-04 3.716007832E-01
 6.882677011E-01 -1.000000000E-03 -5.181122266E-02 1.834740675E-04 3.729488337E-01
 6.854866035E-01 -1.000000000E-03 -5.118658507E-02 1.933024762E-04 3.701830593E-01
 6.840501845E-01 -1.000000000E-03 -5.086449437E-02 1.989790083E-04 3.687339255E-01
 6.746031472E-01 -1.000000000E-03 -4.875510061E-02 2.301102501E-04 3.595660576E-01
 6.728592280E-01 -1.000000000E-03 -4.836739011E-02 2.359609521E-04 3.578345633E-01
 6.762924187E-01 -1.000000000E-03 -4.913115952E-02 2.250127956E-04 3.612374806E-01
 6.672623141E-01 -1.000000000E-03 -4.712658410E-02 2.525386403E-04 3.526193922E-01
 6.691920923E-01 -1.000000000E-03 -4.755380347E-02 2.472415446E-04 3.544068565E-01
 6.519794253E-01 -1.000000000E-03 -4.376533901E-02 3.069211039E-04 3.382001234E-01
 6.495930835E-01 -1.000000000E-03 -4.324400680E-02 3.174725266E-04 3.362443746E-01
 6.447323476E-01 -1.000000000E-03 -4.218500179E-02 3.391969008E-04 3.327448283E-01
 6.422850807E-01 -1.000000000E-03 -4.165328065E-02 3.501217345E-04 3.309749196E-01
 6.779311539E-01 -1.000000000E-03 -4.949643773E-02 2.199535906E-04 3.627888448E-01
 6.795230531E-01 -1.000000000E-03 -4.985172009E-02 2.147359728E-04 3.643400183E-01
 7.092387964E-01 -1.000000000E-03 -5.656567773E-02 8.425961572E-05 3.947432578E-01
 7.080834706E-01 -1.000000000E-03 -5.630168077E-02 9.093074674E-05 3.934409216E-01
 7.265393117E-01 -1.000000000E-03 -6.054849765E-02 -1.309512764E-05 4.138690927E-01
 7.255412728E-01 -1.000000000E-03 -6.031721068E-02 -8.682455004E-06 4.127813914E-01
 6.632008465E-01 -1.000000000E-03 -4.622950452E-02 2.645542501E-04 3.488102809E-01
 6.610706992E-01 -1.000000000E-03 -4.576011754E-02 2.713016805E-04 3.468554609E-01
 6.471750943E-01 -1.000000000E-03 -4.271671688E-02 3.282062520E-04 3.344675350E-01
 6.948090215E-01 -1.000000000E-03 -5.328578676E-02 1.532958997E-04 3.795613953E-01
 6.935380446E-01 -1.000000000E-03 -5.299868583E-02 1.585254962E-04 3.782475054E-01
 6.543261116E-01 -1.000000000E-03 -4.427892561E-02 2.969810091E-04 3.403698248E-01
 6.652652987E-01 -1.000000000E-03 -4.668514388E-02 2.581789175E-04 3.507362962E-01
 6.588780157E-01 -1.000000000E-03 -4.527774520E-02 2.787833374E-04 3.447382828E-01
 7.069196945E-01 -1.000000000E-03 -5.603599966E-02 9.768498837E-05 3.922323735E-01
 6.710567311E-01 -1.000000000E-03 -4.796720350E-02 2.418260839E-04 3.561474750E-01
 6.566277021E-01 -1.000000000E-03 -4.478353004E-02 2.875776715E-04 3.425449826E-01
 6.896178921E-01 -1.000000000E-03 -5.211496725E-02 1.775285330E-04 3.742373545E-01
 7.045672107E-01 -1.000000000E-03 -5.549969987E-02 1.087258067E-04 3.897993807E-01
 7.224604359E-01 -1.000000000E-03 -5.960444028E-02 1.069573120E-05 4.093057318E-01
 7.214078317E-01 -1.000000000E-03 -5.936132369E-02 1.697585030E-05 4.080753592E-01
 7.159985865E-01 -1.000000000E-03 -5.811524055E-02 4.656531691E-05 4.021607585E-01
 7.337573406E-01 -1.000000000E-03 -6.222686680E-02 -5.067735960E-05 4.220653939E-01
 7.345288422E-01 -1.000000000E-03 -6.240685401E-02 -5.188269649E-05 4.228627062E-01
 7.009772747E-01 -1.000000000E-03 -5.468323156E-02 1.255604374E-04 3.858832913E-01
 7.192709561E-01 -1.000000000E-03 -5.886841591E-02 2.976334288E-05 4.057449420E-01
 6.973089955E-01 -1.000000000E-03 -5.385134564E-02 1.435031097E-04 3.821469285E-01
 6.960653649E-01 -1.000000000E-03 -5.356986475E-02 1.483488972E-04 3.808650255E-01
 7.203443628E-01 -1.000000000E-03 -5.911590898E-02 2.355622699E-05 4.069235133E-01
 6.825793386E-01 -1.000000000E-03 -5.053505731E-02 2.048532462E-04 3.673095100E-01
 6.810713306E-01 -1.000000000E-03 -5.019768782E-02 2.099303729E-04 3.658684293E-01
 7.057475811E-01 -1.000000000E-03 -5.576866500E-02 1.036793829E-04 3.909967299E-01
 7.103856951E-01 -1.000000000E-03 -5.682799103E-02 7.810109439E-05 3.959628899E-01
 7.115242656E-01 -1.000000000E-03 -5.708863858E-02 7.179871159E-05 3.972042504E-01
 7.126546677E-01 -1.000000000E-03 -5.734765225E-02 6.536945021E-05 3.984582580E-01
 7.235010088E-01 -1.000000000E-03 -5.984498294E-02 4.288793740E-06 4.103875067E-01
 7.245282890E-01 -1.000000000E-03 -6.008265305E-02 -2.898452179E-06 4.115201344E-01
 7.294301296E-01 -1.000000000E-03 -6.121948643E-02 -2.811649701E-05 4.169954655E-01
 7.303513065E-01 -1.000000000E-03 -6.143363574E-02 -3.410442305E-05 4.180200409E-01
 7.312469124E-01 -1.000000000E-03 -6.164199649E-02 -3.966473842E-05 4.190367208E-01
 7.329520626E-01 -1.000000000E-03 -6.203912319E-02 -4.950728965E-05 4.211115253E-01
 7.321145750E-01 -1.000000000E-03 -6.184400354E-02 -4.544043368E-05 4.199639670E-01
 7.352655792E-01 -1.000000000E-03 -6.257883921E-02 -5.394688451E-05 4.236799337E-01
 7.359671349E-01 -1.000000000E-03 -6.274271019E-02 -5.620730974E-05 4.244415433E-01
 7.366327405E-01 -1.000000000E-03 -6.289827246E-02 -5.685813678E-05 4.252564009E-01
 7.407875199E-01 -1.000000000E-03 -6.387123302E-02 -5.785045922E-05 4.299103519E-01
 7.401500290E-01 -1.000000000E-03 -6.372173729E-02 -5.762402082E-05 4.294404832E-01
 7.399358838E-01 -1.000000000E-03 -6.367153014E-02 -5.802545739E-05 4.293616515E-01
 7.394486732E-01 -1.000000000E-03 -6.355734428E-02 -5.718170569E-05 4.286449361E-01
 7.388270597E-01 -1.000000000E-03 -6.583576618E-02 1.983465011E-04 4.227269483E-01
 7.386763499E-01 -1.000000000E-03 -6.584414357E-02 2.044231244E-04 4.228081976E-01
 7.427961809E-01 -1.000000000E-03 -6.561361169E-02 1.816361695E-04 4.302204322E-01
 7.427258329E-01 -1.000000000E-03 -6.561757240E-02 1.858481267E-04 4.299875112E-01
 7.431505744E-01 -1.000000000E-03 -6.559363892E-02 1.689030922E-04 4.313004268E-01
 7.431833965E-01 -1.000000000E-03 -6.559178686E-02 1.682840892E-04 4.313735351E-01
 7.425140718E-01 -1.000000000E-03 -6.562949400E-02 1.939017698E-04 4.293748620E-01
 7.421881801E-01 -1.000000000E-03 -6.564782289E-02 1.957362246E-04 4.300016660E-01
 7.434880727E-01 -1.000000000E-03 -6.557459535E-02 1.569796096E-04 4.320904675E-01
 7.435964372E-01 -1.000000000E-03 -6.556847707E-02 1.570945897E-04 4.319946428E-01
 7.411789776E-01 -1.000000000E-03 -6.570446212E-02 1.844154276E-04 4.278132795E-01
 7.407884748E-01 -1.000000000E-03 -6.572633064E-02 1.878111101E-04 4.271465219E-01
 7.418809060E-01 -1.000000000E-03 -6.566508703E-02 1.903881337E-04 4.297384108E-01
 7.415294936E-01 -1.000000000E-03 -6.568481055E-02 1.841924933E-04 4.291211352E-01
 7.442655261E-01 -1.000000000E-03 -6.553064289E-02 1.410438730E-04 4.329383627E-01
 7.440317642E-01 -1.000000000E-03 -6.554387238E-02 1.547758342E-04 4.326563877E-01
 7.439643674E-01 -1.000000000E-03 -6.554768303E-02 1.559491674E-04 4.327649780E-01
 7.444370162E-01 -1.000000000E-03 -6.552093108E-02 1.388485325E-04 4.331604597E-01
 7.455929390E-01 -1.000000000E-03 -6.545531910E-02 1.330035305E-04 4.345145661E-01
 7.459398132E-01 -1.000000000E-03 -6.543557943E-02 1.318873576E-04 4.351653595E-01
 7.448833593E-01 -1.000000000E-03 -6.549562521E-02 1.403176114E-04 4.335980204E-01
 7.451805518E-01 -1.000000000E-03 -6.547875857E-02 1.384703041E-04 4.336637859E-01
 7.446790946E-01 -1.000000000E-03 -6.550721510E-02 1.440424091E-04 4.336615485E-01
 7.403759327E-01 -1.000000000E-03 -6.574940441E-02 1.979854467E-04 4.262189413E-01
 7.459322565E-01 -1.000000000E-03 -6.543600956E-02 1.320459538E-04 4.351481481E-01
 7.462932304E-01 -1.000000000E-03 -6.541544736E-02 1.415737858E-04 4.358898998E-01
 7.403753110E-01 -1.000000000E-03 -6.574943914E-02 1.979827981E-04 4.262199358E-01
 7.399248320E-01 -1.000000000E-03 -6.577460052E-02 1.891020250E-04 4.269938379E-01
 7.394133151E-01 -1.000000000E-03 -6.580312789E-02 1.827371474E-04 4.248146814E-01
 7.464085163E-01 -1.000000000E-03 -6.540887639E-02 1.532422650E-04 4.361306223E-01
 5.608843714E-01 -1.000000000E-03 -2.450475152E-02 5.919441150E-04 2.675178083E-01
 5.643157593E-01 -1.000000000E-03 -2.520716064E-02 5.842743721E-04 2.701983589E-01
 5.539216442E-01 -1.000000000E-03 -2.308488140E-02 6.082241022E-04 2.623921799E-01
 5.574205324E-01 -1.000000000E-03 -2.379748537E-02 5.997812548E-04 2.651189240E-01
 5.060527039E-01 -1.000000000E-03 -1.351803169E-02 7.136070616E-04 2.283223831E-01
 5.098033705E-01 -1.000000000E-03 -1.425538016E-02 7.061076069E-04 2.310995721E-01
 4.909802171E-01 -1.000000000E-03 -1.057593382E-02 7.478084463E-04 2.176124117E-01
 4.871871987E-01 -1.000000000E-03 -9.840862213E-03 7.567031352E-04 2.154254726E-01
 4.012066007E-01 -1.000000000E-03 6.235219385E-03 9.411104993E-04 1.528077072E-01
 4.052242170E-01 -1.000000000E-03 5.509791351E-03 9.323804106E-04 1.558948503E-01
 5.395635766E-01 -1.000000000E-03 -2.017971504E-02 6.409601402E-04 2.523998483E-01
 5.358937760E-01 -1.000000000E-03 -1.944208768E-02 6.475563393E-04 2.495248528E-01
 4.833825665E-01 -1.000000000E-03 -9.105690686E-03 7.625349200E-04 2.125385880E-01
 4.564676698E-01 -1.000000000E-03 -3.966867522E-03 8.157138024E-04 1.931345697E-01
 4.525898109E-01 -1.000000000E-03 -3.235490696E-03 8.251306360E-04 1.901948407E-01
 5.710940359E-01 -1.000000000E-03 -2.659986947E-02 5.709129626E-04 2.749312792E-01
 5.744479531E-01 -1.000000000E-03 -2.729154294E-02 5.618561604E-04 2.774593989E-01
 4.172177424E-01 -1.000000000E-03 3.328759365E-03 9.059702214E-04 1.646676503E-01
 4.132298756E-01 -1.000000000E-03 4.056512095E-03 9.148975669E-04 1.616982194E-01
 5.135499081E-01 -1.000000000E-03 -1.499399404E-02 6.983090116E-04 2.336658767E-01
 5.432048132E-01 -1.000000000E-03 -2.091357327E-02 6.338201775E-04 2.548726383E-01
 5.468132550E-01 -1.000000000E-03 -2.164276288E-02 6.246962281E-04 2.574019556E-01
 5.503859888E-01 -1.000000000E-03 -2.236664316E-02 6.166258631E-04 2.601103581E-01
 4.251605910E-01 -1.000000000E-03 1.871737845E-03 8.876593189E-04 1.700201079E-01
 4.291143231E-01 -1.000000000E-03 1.142768909E-03 8.781919939E-04 1.733955979E-01
 5.677178368E-01 -1.000000000E-03 -2.590531120E-02 5.784985569E-04 2.728448243E-01
 4.369848646E-01 -1.000000000E-03 -3.156234570E-04 8.647077659E-04 1.791096885E-01
 4.409020287E-01 -1.000000000E-03 -1.045046715E-03 8.546543205E-04 1.818498035E-01
 4.448079461E-01 -1.000000000E-03 -1.774733742E-03 8.446390980E-04 1.847094511E-01
 4.603377864E-01 -1.000000000E-03 -4.699061523E-03 8.077229172E-04 1.959476108E-01
 5.284891999E-01 -1.000000000E-03 -1.795984362E-02 6.637183969E-04 2.442354022E-01
 5.247648819E-01 -1.000000000E-03 -1.721737849E-02 6.734558365E-04 2.415795747E-01
 5.210317618E-01 -1.000000000E-03 -1.647521749E-02 6.829152509E-04 2.391943448E-01
 5.172928611E-01 -1.000000000E-03 -1.573397269E-02 6.905480533E-04 2.365266789E-01
 4.947620417E-01 -1.000000000E-03 -1.131096503E-02 7.369481175E-04 2.202592895E-01
 4.985337067E-01 -1.000000000E-03 -1.204613673E-02 7.280740101E-04 2.229957189E-01
 4.487035401E-01 -1.000000000E-03 -2.504828213E-03 8.350934449E-04 1.875740625E-01
 3.971783915E-01 -1.000000000E-03 6.959925804E-03 9.497882768E-04 1.496779441E-01
 5.322005147E-01 -1.000000000E-03 -1.870175815E-02 6.553744329E-04 2.468974118E-01
 3.931384404E-01 -1.000000000E-03 7.684076667E-03 9.589805990E-04 1.467017095E-01
 4.211948827E-01 -1.000000000E-03 2.600446595E-03 8.977265235E-04 1.675568068E-01
 4.719018734E-01 -1.000000000E-03 -6.900376173E-03 7.839772041E-04 2.040096756E-01
 4.757392210E-01 -1.000000000E-03 -7.635292264E-03 7.774257803E-04 2.068041377E-01
 4.795663981E-01 -1.000000000E-03 -8.370458628E-03 7.699506591E-04 2.093515660E-01
 4.680553342E-01 -1.000000000E-03 -6.165919994E-03 7.913340140E-04 2.013490649E-01
 4.092319327E-01 -1.000000000E-03 4.783552204E-03 9.236968361E-04 1.589162801E-01
 5.022966888E-01 -1.000000000E-03 -1.278171886E-02 7.208722558E-04 2.257199541E-01
 4.330557540E-01 -1.000000000E-03 4.136358833E-04 8.722478911E-04 1.765855357E-01
 5.777828358E-01 -1.000000000E-03 -2.798097426E-02 5.537745906E-04 2.799594299E-01
 4.642004243E-01 -1.000000000E-03 -5.432101149E-03 7.994232222E-04 1.985901405E-01
 3.603454258E-01 -1.000000000E-03 1.346086108E-02 1.039845651E-03 1.216712358E-01
 3.644763793E-01 -1.000000000E-03 1.274328204E-02 1.029406967E-03 1.248533282E-01
 3.398462433E-01 -1.000000000E-03 1.697697605E-02 1.090523827E-03 1.057051291E-01
 3.439120334E-01 -1.000000000E-03 1.628559884E-02 1.081082231E-03 1.092428011E-01
 3.118061979E-01 -1.000000000E-03 2.166117159E-02 1.168267746E-03 8.358741103E-02
 3.078266223E-01 -1.000000000E-03 2.231375153E-02 1.178884863E-03 8.051438754E-02
 2.919071465E-01 -1.000000000E-03 2.489264895E-02 1.221533128E-03 6.733593937E-02
 2.958877097E-01 -1.000000000E-03 2.425262228E-02 1.210792489E-03 7.050235842E-02
 2.799583318E-01 -1.000000000E-03 2.679413835E-02 1.255681487E-03 5.754136833E-02
 2.839431728E-01 -1.000000000E-03 2.616333001E-02 1.244686677E-03 6.090607662E-02
 2.759698269E-01 -1.000000000E-03 2.742214933E-02 1.267866248E-03 5.405884403E-02
 2.559091517E-01 -1.000000000E-03 3.052816261E-02 1.330606104E-03 3.728564458E-02
 2.599423370E-01 -1.000000000E-03 2.991089048E-02 1.318197321E-03 4.071827370E-02
 2.396578400E-01 -1.000000000E-03 3.297746329E-02 1.383140563E-03 2.325580732E-02
 2.437368896E-01 -1.000000000E-03 3.236849768E-02 1.369920162E-03 2.688428078E-02
 2.273742606E-01 -1.000000000E-03 3.478709455E-02 1.427320765E-03 1.277848309E-02
 2.232664064E-01 -1.000000000E-03 3.538399271E-02 1.442152507E-03 9.277583395E-03
 2.067782289E-01 -1.000000000E-03 3.773669584E-02 1.497900676E-03 -5.262021434E-03
 2.109091433E-01 -1.000000000E-03 3.715385209E-02 1.483680247E-03 -1.863799269E-03
 1.943359756E-01 -1.000000000E-03 3.946470698E-02 1.543406103E-03 -1.636703062E-02
 1.984927900E-01 -1.000000000E-03 3.889205358E-02 1.526526791E-03 -1.278144102E-02
 1.734174869E-01 -1.000000000E-03 4.227302657E-02 1.623411696E-03 -3.552280318E-02
 1.776132893E-01 -1.000000000E-03 4.171979460E-02 1.608770679E-03 -3.136220553E-02
 1.442708951E-01 -1.000000000E-03 4.596866848E-02 1.744502631E-03 -6.183935619E-02
 1.483891545E-01 -1.000000000E-03 4.546265686E-02 1.726351080E-03 -5.804694174E-02
 1.200316748E-01 -1.000000000E-03 4.883213372E-02 1.857711769E-03 -8.411360804E-02
 1.240095315E-01 -1.000000000E-03 4.837606460E-02 1.838989052E-03 -8.051246680E-02
 1.525262904E-01 -1.000000000E-03 4.494883771E-02 1.708380632E-03 -5.423046777E-02
 1.608500253E-01 -1.000000000E-03 4.389872238E-02 1.672582476E-03 -4.659797636E-02
 1.650316970E-01 -1.000000000E-03 4.336308691E-02 1.655216669E-03 -4.278526396E-02
 1.160807108E-01 -1.000000000E-03 4.927954843E-02 1.875663661E-03 -8.783219624E-02
 1.121567195E-01 -1.000000000E-03 4.971832928E-02 1.893213355E-03 -9.166922290E-02
 3.562182460E-01 -1.000000000E-03 1.417479746E-02 1.049955698E-03 1.187133422E-01
 3.521007455E-01 -1.000000000E-03 1.488405862E-02 1.060770327E-03 1.154087242E-01
 2.026398752E-01 -1.000000000E-03 3.831606528E-02 1.511269242E-03 -8.955076937E-03
 1.692221924E-01 -1.000000000E-03 4.282099884E-02 1.639222212E-03 -3.903331013E-02
 2.879258028E-01 -1.000000000E-03 2.552953661E-02 1.233034219E-03 6.403625547E-02
 1.320431751E-01 -1.000000000E-03 4.743817480E-02 1.799825878E-03 -7.313592387E-02
 1.280136912E-01 -1.000000000E-03 4.791138283E-02 1.819313007E-03 -7.687782620E-02
 3.157871140E-01 -1.000000000E-03 2.100527507E-02 1.156435302E-03 8.649545003E-02
 2.719757882E-01 -1.000000000E-03 2.804760639E-02 1.280341427E-03 5.086795785E-02
 2.679743207E-01 -1.000000000E-03 2.867074928E-02 1.292492275E-03 4.748665284E-02
 2.355704080E-01 -1.000000000E-03 3.358369539E-02 1.397047048E-03 1.984570815E-02
 1.082589813E-01 -1.000000000E-03 5.014858768E-02 1.910492734E-03 -9.535622204E-02
 2.314757987E-01 -1.000000000E-03 3.418694192E-02 1.411825507E-03 1.628485610E-02
 3.358002447E-01 -1.000000000E-03 1.766198594E-02 1.103009840E-03 1.025516942E-01
 3.727272381E-01 -1.000000000E-03 1.130119211E-02 1.012490332E-03 1.316321271E-01
 3.686052177E-01 -1.000000000E-03 1.202310718E-02 1.020748746E-03 1.283428440E-01
 1.566806026E-01 -1.000000000E-03 4.442743384E-02 1.690467642E-03 -5.041669032E-02
 3.850181076E-01 -1.000000000E-03 9.131465289E-03 9.795167823E-04 1.406387094E-01
 3.809357181E-01 -1.000000000E-03 9.854964726E-03 9.904558066E-04 1.376602012E-01
 3.890854089E-01 -1.000000000E-03 8.407867980E-03 9.687569906E-04 1.437467432E-01
 2.998677376E-01 -1.000000000E-03 2.360945240E-02 1.199904756E-03 7.382723966E-02
 3.197713044E-01 -1.000000000E-03 2.034576656E-02 1.145426464E-03 8.994561291E-02
 3.237614906E-01 -1.000000000E-03 1.968221302E-02 1.135720482E-03 9.319734670E-02
 2.191527816E-01 -1.000000000E-03 3.597748757E-02 1.456034497E-03 5.664542096E-03
 1.360967181E-01 -1.000000000E-03 4.695656321E-02 1.781044428E-03 -6.937936507E-02
 1.401730118E-01 -1.000000000E-03 4.646668500E-02 1.762703591E-03 -6.560554869E-02
 2.518636473E-01 -1.000000000E-03 3.114360251E-02 1.343625670E-03 3.378134704E-02
 2.478059555E-01 -1.000000000E-03 3.175711447E-02 1.357047332E-03 3.042698872E-02
 1.901689072E-01 -1.000000000E-03 4.003400205E-02 1.560714644E-03 -2.004240352E-02
 1.859918272E-01 -1.000000000E-03 4.059980849E-02 1.578848644E-03 -2.379719242E-02
 3.479975055E-01 -1.000000000E-03 1.558785623E-02 1.072293093E-03 1.123185738E-01
 2.639636819E-01 -1.000000000E-03 2.929178712E-02 1.305379106E-03 4.409693764E-02
 2.150337707E-01 -1.000000000E-03 3.656745458E-02 1.469386019E-03 1.906096953E-03
 3.317726604E-01 -1.000000000E-03 1.834087483E-02 1.114943127E-03 9.959758966E-02
 3.277608415E-01 -1.000000000E-03 1.901409840E-02 1.125561199E-03 9.638484087E-02
 1.818058221E-01 -1.000000000E-03 4.116188014E-02 1.595273552E-03 -2.731885458E-02
 3.768383363E-01 -1.000000000E-03 1.057829869E-02 1.001797673E-03 1.345500764E-01
 1.043857242E-01 -1.000000000E-03 5.057054748E-02 1.927833670E-03 -9.885866573E-02
 3.038473093E-01 -1.000000000E-03 2.296316133E-02 1.189218075E-03 7.723562530E-02
 3.931384404E-01 -1.000000000E-03 7.684076667E-03 9.589805990E-04 1.467017095E-01
 7.465884586E-01 -1.000000000E-03 -6.539861772E-02 1.758090526E-04 4.366707497E-01
 7.464085163E-01 -1.000000000E-03 -6.540887639E-02 1.532422650E-04 4.361306223E-01
 7.466094879E-01 -1.000000000E-03 -6.524032058E-02 1.963505699E-04 4.359722117E-01
 7.464654325E-01 -1.000000000E-03 -6.520636700E-02 1.396579698E-04 4.359122727E-01
 7.463152638E-01 -1.000000000E-03 -6.517097453E-02 8.676373605E-05 4.358380865E-01
 7.450520173E-01 -1.000000000E-03 -6.487339559E-02 -5.999841451E-05 4.342778983E-01
 7.451336968E-01 -1.000000000E-03 -6.489262705E-02 -5.678054262E-05 4.343684446E-01
 7.447432983E-01 -1.000000000E-03 -6.480071661E-02 -6.695146373E-05 4.339972112E-01
 7.421874835E-01 -1.000000000E-03 -6.419981602E-02 -6.354554847E-05 4.314982577E-01
 7.418557211E-01 -1.000000000E-03 -6.412191399E-02 -6.355802121E-05 4.311162092E-01
 7.427669076E-01 -1.000000000E-03 -6.433592532E-02 -6.599172935E-05 4.318966570E-01
 7.427196343E-01 -1.000000000E-03 -6.432481908E-02 -6.600132013E-05 4.318999778E-01
 7.425101136E-01 -1.000000000E-03 -6.427559480E-02 -6.675985480E-05 4.317213925E-01
 7.439212298E-01 -1.000000000E-03 -6.460728932E-02 -6.648596120E-05 4.330228311E-01
 7.440662339E-01 -1.000000000E-03 -6.464139557E-02 -6.822953140E-05 4.330270397E-01
 7.443793372E-01 -1.000000000E-03 -6.471506175E-02 -6.947365545E-05 4.331879690E-01
 7.444574770E-01 -1.000000000E-03 -6.473344726E-02 -6.893981724E-05 4.333186580E-01
 7.407875199E-01 -1.000000000E-03 -6.387123302E-02 -5.785045922E-05 4.299103519E-01
 7.411824009E-01 -1.000000000E-03 -6.396387646E-02 -5.878715490E-05 4.301207946E-01
 7.458922943E-01 -1.000000000E-03 -6.507130698E-02 -1.176113772E-05 4.354556703E-01
 7.459684285E-01 -1.000000000E-03 -6.508924392E-02 -5.111731242E-06 4.354366860E-01
 7.460762950E-01 -1.000000000E-03 -6.511466100E-02 1.391554839E-05 4.355795911E-01
 7.456244415E-01 -1.000000000E-03 -6.500820468E-02 -3.587002523E-05 4.350292373E-01
 7.430557703E-01 -1.000000000E-03 -6.440380618E-02 -6.504854389E-05 4.322525673E-01
 7.432940003E-01 -1.000000000E-03 -6.445980165E-02 -6.306410750E-05 4.324511361E-01
 7.415319845E-01 -1.000000000E-03 -6.404591753E-02 -6.296951011E-05 4.305389468E-01
 7.470486923E-01 -1.000000000E-03 -6.534385893E-02 8.317404498E-04 4.281769604E-01
 7.471460236E-01 -1.000000000E-03 -6.536680708E-02 1.040266799E-03 4.262138328E-01
 7.469318944E-01 -1.000000000E-03 -6.531632263E-02 4.672897943E-04 4.355303714E-01
 7.467917364E-01 -1.000000000E-03 -6.528328108E-02 3.125194183E-04 4.356901479E-01
 7.435972977E-01 -1.000000000E-03 -6.453110803E-02 -6.331965046E-05 4.328525577E-01
 7.454946009E-01 -1.000000000E-03 -6.497762090E-02 -3.923552065E-05 4.346716701E-01
 7.470461861E-01 -1.000000000E-03 -6.537250519E-02 7.216408549E-04 4.333368400E-01
 7.469263810E-01 -1.000000000E-03 -6.537934182E-02 3.698726031E-04 4.370868204E-01
 7.467826148E-01 -1.000000000E-03 -6.538754403E-02 2.483988177E-04 4.375698759E-01
 -6.249842741E-02 -1.000000000E-03 6.191758705E-02 2.985374919E-03 -2.583547580E-01
 -5.980164790E-02 -1.000000000E-03 6.187192708E-02 2.962560721E-03 -2.557185541E-01
 -9.359757656E-02 -1.000000000E-03 6.198152260E-02 3.278090337E-03 -2.900095238E-01
 -9.110366190E-02 -1.000000000E-03 6.201013136E-02 3.248115102E-03 -2.880829688E-01
 -1.307326086E-01 -1.000000000E-03 6.072346622E-02 3.699190560E-03 -3.292243409E-01
 -1.338845995E-01 -1.000000000E-03 6.053511559E-02 3.750094983E-03 -3.331204632E-01
 -1.010577213E-01 -1.000000000E-03 6.185743525E-02 3.359328270E-03 -2.963009162E-01
 -9.856945030E-02 -1.000000000E-03 6.190537787E-02 3.334489544E-03 -2.954698485E-01
 -4.618789772E-02 -1.000000000E-03 6.155311267E-02 2.851515926E-03 -2.423586197E-01
 -4.342585592E-02 -1.000000000E-03 6.147113552E-02 2.830067481E-03 -2.396674712E-01
 -1.111666874E-01 -1.000000000E-03 6.159181234E-02 3.465256546E-03 -3.081642664E-01
 -1.086024879E-01 -1.000000000E-03 6.167024691E-02 3.437067394E-03 -3.059188630E-01
 -1.624772514E-01 -1.000000000E-03 5.808616879E-02 4.195425129E-03 -3.682374496E-01
 -1.599802098E-01 -1.000000000E-03 5.835998465E-02 4.141555906E-03 -3.649026671E-01
 -8.353846518E-02 -1.000000000E-03 6.205919047E-02 3.185993365E-03 -2.798592198E-01
 -8.607761324E-02 -1.000000000E-03 6.204894574E-02 3.212162161E-03 -2.808669804E-01
 -1.371261153E-01 -1.000000000E-03 6.032619460E-02 3.807261076E-03 -3.373116346E-01
 -1.403680448E-01 -1.000000000E-03 6.010124762E-02 3.848918392E-03 -3.406026013E-01
 -7.839679108E-02 -1.000000000E-03 6.206122973E-02 3.129010998E-03 -2.743103316E-01
 -7.579285955E-02 -1.000000000E-03 6.205293449E-02 3.103805079E-03 -2.717304533E-01
 -5.709686113E-02 -1.000000000E-03 6.182019196E-02 2.939710820E-03 -2.530435602E-01
 -6.518570480E-02 -1.000000000E-03 6.195710958E-02 3.007422206E-03 -2.610006645E-01
 -6.786139471E-02 -1.000000000E-03 6.199044069E-02 3.029898661E-03 -2.637250676E-01
 -4.064326432E-02 -1.000000000E-03 6.138288238E-02 2.808969840E-03 -2.369637088E-01
 -3.783719159E-02 -1.000000000E-03 6.128820948E-02 2.788050983E-03 -2.342405831E-01
 -1.574362909E-01 -1.000000000E-03 5.862584515E-02 4.087651123E-03 -3.613329761E-01
 -1.137684414E-01 -1.000000000E-03 6.150428688E-02 3.493212957E-03 -3.108010593E-01
 -1.035550866E-01 -1.000000000E-03 6.180253382E-02 3.374315839E-03 -2.993455095E-01
 -9.608452419E-02 -1.000000000E-03 6.194666251E-02 3.303901076E-03 -2.927321776E-01
 -1.548330617E-01 -1.000000000E-03 5.888476613E-02 4.032386269E-03 -3.583040768E-01
 -1.521560277E-01 -1.000000000E-03 5.913771511E-02 3.980567136E-03 -3.553732230E-01
 -1.493877933E-01 -1.000000000E-03 5.938553389E-02 3.938872752E-03 -3.525369906E-01
 -1.465085188E-01 -1.000000000E-03 5.962892379E-02 3.902995161E-03 -3.491317290E-01
 -1.435005036E-01 -1.000000000E-03 5.986806514E-02 3.874795370E-03 -3.444185778E-01
 -1.276832790E-01 -1.000000000E-03 6.089219620E-02 3.654400218E-03 -3.278278253E-01
 -1.247409489E-01 -1.000000000E-03 6.104278988E-02 3.618916154E-03 -3.226407431E-01
 -1.191209279E-01 -1.000000000E-03 6.129832090E-02 3.567214099E-03 -3.168891335E-01
 -1.218916691E-01 -1.000000000E-03 6.117750861E-02 3.598442713E-03 -3.180117521E-01
 -1.164166585E-01 -1.000000000E-03 6.140681290E-02 3.526322064E-03 -3.141002382E-01
 -1.060677496E-01 -1.000000000E-03 6.174029473E-02 3.402315982E-03 -3.037893812E-01
 -8.859830635E-02 -1.000000000E-03 6.203259273E-02 3.225278535E-03 -2.840504856E-01
 -8.097859742E-02 -1.000000000E-03 6.206329959E-02 3.154454100E-03 -2.768582047E-01
 -7.316763842E-02 -1.000000000E-03 6.203837686E-02 3.079118105E-03 -2.689787685E-01
 -7.052296274E-02 -1.000000000E-03 6.201754105E-02 3.054290184E-03 -2.663270123E-01
 -5.438457999E-02 -1.000000000E-03 6.176243665E-02 2.917264111E-03 -2.503793247E-01
 -5.166395241E-02 -1.000000000E-03 6.169868848E-02 2.895127288E-03 -2.477116923E-01
 -4.893275661E-02 -1.000000000E-03 6.162893268E-02 2.873235810E-03 -2.450362202E-01
 -2.490941243E-01 -1.000000000E-03 1.981093243E-02 -1.564942775E-04 7.043062919E-01
 -2.491042555E-01 -1.000000000E-03 2.015084083E-02 -7.228786046E-05 6.798632105E-01
 -2.491013666E-01 -1.000000000E-03 2.067932142E-02 7.202825530E-05 6.448822708E-01
 -2.490966975E-01 -1.000000000E-03 2.101342642E-02 1.952306732E-04 6.302872664E-01
 -2.488332152E-01 -1.000000000E-03 1.747756458E-02 -5.804157360E-04 8.268386133E-01
 -2.489642831E-01 -1.000000000E-03 1.829949815E-02 -4.828457919E-04 7.870831882E-01
 -2.490186832E-01 -1.000000000E-03 2.205468576E-02 6.018989430E-04 5.322527495E-01
 -2.490486750E-01 -1.000000000E-03 2.178893573E-02 5.413064794E-04 5.426415567E-01
 -2.489595823E-01 -1.000000000E-03 2.257410719E-02 7.890251908E-04 5.268607720E-01
 -2.355522180E-01 -1.000000000E-03 3.920435104E-02 5.566608396E-03 -3.823475876E-01
 -2.366827032E-01 -1.000000000E-03 3.849828577E-02 5.479447772E-03 -3.777144835E-01
 -2.487724295E-01 -1.000000000E-03 2.363901728E-02 1.211097631E-03 4.258216837E-01
 -2.488425782E-01 -1.000000000E-03 2.328667777E-02 1.084730562E-03 4.519145245E-01
 -2.379034802E-01 -1.000000000E-03 3.768794567E-02 5.379974955E-03 -3.699167791E-01
 -2.481102166E-01 -1.000000000E-03 2.593501063E-02 2.256725816E-03 2.369959189E-01
 -2.483700394E-01 -1.000000000E-03 2.517693743E-02 1.934146208E-03 2.953944737E-01
 -1.792045552E-01 -1.000000000E-03 5.588451666E-02 4.542340666E-03 -3.906627899E-01
 -1.768797464E-01 -1.000000000E-03 5.623235584E-02 4.490532741E-03 -3.875187188E-01
 -2.181215462E-01 -1.000000000E-03 4.699170868E-02 5.490550058E-03 -4.369752257E-01
 -2.163767605E-01 -1.000000000E-03 4.756950661E-02 5.428922695E-03 -4.384644426E-01
 -1.697773346E-01 -1.000000000E-03 5.720787395E-02 4.340204290E-03 -3.780183392E-01
 -1.721647847E-01 -1.000000000E-03 5.689393438E-02 4.390711530E-03 -3.808775818E-01
 -1.904226540E-01 -1.000000000E-03 5.397947453E-02 4.790930472E-03 -4.057916018E-01
 -1.925811990E-01 -1.000000000E-03 5.356519876E-02 4.842729307E-03 -4.089272159E-01
 -2.276070617E-01 -1.000000000E-03 4.331725653E-02 5.646929034E-03 -4.302862336E-01
 -2.261362279E-01 -1.000000000E-03 4.395650952E-02 5.631185274E-03 -4.318339413E-01
 -1.815044948E-01 -1.000000000E-03 5.552542854E-02 4.601975659E-03 -3.943131921E-01
 -2.069995613E-01 -1.000000000E-03 5.029900041E-02 5.218735424E-03 -4.282458847E-01
 -2.089521066E-01 -1.000000000E-03 4.977746520E-02 5.273068745E-03 -4.303885477E-01
 -2.460121701E-01 -1.000000000E-03 1.050693185E-02 5.740767034E-05 9.752090905E-01
 -2.454037460E-01 -1.000000000E-03 9.574135890E-03 2.468797178E-04 9.719498799E-01
 -2.470474612E-01 -1.000000000E-03 1.233903248E-02 -2.748703956E-04 9.666544864E-01
 -2.465585646E-01 -1.000000000E-03 1.142721880E-02 -1.188920887E-04 9.725008192E-01
 -2.474767570E-01 -1.000000000E-03 1.323362190E-02 -4.163282375E-04 9.564461433E-01
 -2.478566856E-01 -1.000000000E-03 1.412901338E-02 -5.356505955E-04 9.394025064E-01
 -2.460989482E-01 -1.000000000E-03 2.981910978E-02 3.768187981E-03 -4.745075093E-02
 -2.455383333E-01 -1.000000000E-03 3.061401497E-02 4.055598719E-03 -9.563891164E-02