TITLE     = "Surface mesh and solution"
VARIABLES = "x"
"y"
"z"
"cfx"
"Cp"
DATASETAUXDATA alpha_deg="  0.0000000E+00"
DATASETAUXDATA beta_deg="  0.0000000E+00"
DATASETAUXDATA bref="  0.7500000"
DATASETAUXDATA cref="   1.000000"
DATASETAUXDATA itranflg="           0"
DATASETAUXDATA ivisc="           2"
DATASETAUXDATA mach="  0.2000000"
DATASETAUXDATA reue_mil="   4.600000"
DATASETAUXDATA sref="  0.7500000"
DATASETAUXDATA tinf_r="   521.0000"
DATASETAUXDATA xmc="  0.0000000E+00"
DATASETAUXDATA ymc="  0.0000000E+00"
DATASETAUXDATA zmc="  0.0000000E+00"
ZONE T="Slice: Y=-0.73"
STRANDID=0, SOLUTIONTIME=0
Nodes=2596, Elements=2596, ZONETYPE=FELineSeg
DATAPACKING=POINT
DT=(DOUBLE DOUBLE DOUBLE DOUBLE DOUBLE )
0.645014 -0.730000 -0.126652 0.002542	0.070873
0.645612 -0.730000 -0.126679 0.002537	0.071460
0.648564 -0.730000 -0.126814 0.002529	0.072005
0.650769 -0.730000 -0.126914 0.002459	0.074782
0.651513 -0.730000 -0.126947 0.002450	0.075296
0.654507 -0.730000 -0.127081 0.002488	0.079732
0.654656 -0.730000 -0.127088 0.002488	0.079845
0.655010 -0.730000 -0.127104 0.002480	0.080211
0.657749 -0.730000 -0.127224 0.002438	0.081631
0.660200 -0.730000 -0.127332 0.002429	0.085849
0.661202 -0.730000 -0.127375 0.002442	0.086896
0.661896 -0.730000 -0.127405 0.002437	0.087758
0.665750 -0.730000 -0.127571 0.002411	0.092396
0.666789 -0.730000 -0.127615 0.002381	0.093731
0.669407 -0.730000 -0.127726 0.002325	0.096001
0.672190 -0.730000 -0.127843 0.002318	0.099311
0.672389 -0.730000 -0.127851 0.002316	0.099520
0.675799 -0.730000 -0.127992 0.002312	0.103419
0.678347 -0.730000 -0.128096 0.002283	0.107100
0.679716 -0.730000 -0.128151 0.002278	0.108417
0.684770 -0.730000 -0.128354 0.002328	0.115232
0.684789 -0.730000 -0.128355 0.002328	0.115255
0.684792 -0.730000 -0.128355 0.002328	0.115259
0.684806 -0.730000 -0.128355 0.002328	0.115280
0.688933 -0.730000 -0.128517 0.002322	0.120321
0.689995 -0.730000 -0.128558 0.002321	0.121691
0.693038 -0.730000 -0.128675 0.002314	0.126010
0.694287 -0.730000 -0.128722 0.002298	0.127247
0.696516 -0.730000 -0.128807 0.002274	0.128435
0.699136 -0.730000 -0.128905 0.002262	0.131899
0.700787 -0.730000 -0.128966 0.002247	0.132488
0.702379 -0.730000 -0.129024 0.002225	0.134000
0.704683 -0.730000 -0.129108 0.002224	0.136451
0.707524 -0.730000 -0.129210 0.002262	0.137855
0.708975 -0.730000 -0.129262 0.002259	0.138536
0.714100 -0.730000 -0.129441 0.002272	0.139838
0.714460 -0.730000 -0.129454 0.002275	0.139864
0.714700 -0.730000 -0.129462 0.002277	0.139985
0.716135 -0.730000 -0.129511 0.002289	0.140020
0.719366 -0.730000 -0.129621 0.002321	0.139757
0.720604 -0.730000 -0.129662 0.002328	0.138630
0.723558 -0.730000 -0.129761 0.002351	0.135856
0.724678 -0.730000 -0.129797 0.002365	0.134642
0.727381 -0.730000 -0.129886 0.002420	0.130244
0.728942 -0.730000 -0.129936 0.002447	0.126671
0.730655 -0.730000 -0.129990 0.002470	0.123888
0.733142 -0.730000 -0.130067 0.002501	0.114932
0.733289 -0.730000 -0.130072 0.002505	0.114519
0.733359 -0.730000 -0.130074 0.002515	0.113982
0.735346 -0.730000 -0.130136 0.002709	0.103316
0.736603 -0.730000 -0.130175 0.002927	0.088734
0.736820 -0.730000 -0.130182 0.002973	0.086859
0.736879 -0.730000 -0.130184 0.002998	0.085444
0.737614 -0.730000 -0.130206 0.003232	0.079312
0.738058 -0.730000 -0.130220 0.003627	0.063760
0.738076 -0.730000 -0.130220 0.003642	0.063617
0.738183 -0.730000 -0.130224 0.003854	0.060295
0.738341 -0.730000 -0.130228 0.004145	0.056602
0.738351 -0.730000 -0.130229 0.004185	0.055991
0.738487 -0.730000 -0.130233 0.004697	0.042186
0.738506 -0.730000 -0.130233 0.004796	0.042980
0.738563 -0.730000 -0.130235 0.005489	0.045759
0.738567 -0.730000 -0.130235 0.005581	0.045653
0.738572 -0.730000 -0.130235 0.005789	0.045607
0.738591 -0.730000 -0.130236 0.006255	0.055779
0.738597 -0.730000 -0.130236 0.006581	0.050354
0.738602 -0.730000 -0.130236 0.004846	0.034736
0.738606 -0.730000 -0.130236 0.000570	0.004391
0.738601 -0.730000 -0.130235 0.000921	0.009215
0.738597 -0.730000 -0.130233 0.001407	0.011757
0.738590 -0.730000 -0.130231 0.001317	0.014220
0.738580 -0.730000 -0.130227 0.001196	0.018509
0.738567 -0.730000 -0.130223 0.001152	0.020737
0.738537 -0.730000 -0.130213 0.000895	0.022942
0.738506 -0.730000 -0.130203 0.000702	0.020995
0.738410 -0.730000 -0.130171 0.000538	0.020612
0.738390 -0.730000 -0.130164 0.000499	0.022148
0.738345 -0.730000 -0.130150 0.000448	0.019947
0.738178 -0.730000 -0.130095 0.000217	0.019233
0.737868 -0.730000 -0.129992 0.000081	0.014701
0.737826 -0.730000 -0.129979 0.000061	0.013891
0.737485 -0.730000 -0.129866 0.000029	0.007737
0.737237 -0.730000 -0.129784 -0.000001	0.003578
0.737177 -0.730000 -0.129765 0.000006	0.002649
0.736484 -0.730000 -0.129536 0.000112	-0.008439
0.736443 -0.730000 -0.129523 0.000118	-0.009054
0.736263 -0.730000 -0.129463 0.000138	-0.011737
0.735317 -0.730000 -0.129152 0.000242	-0.025614
0.735262 -0.730000 -0.129134 0.000253	-0.026705
0.733586 -0.730000 -0.128582 0.000527	-0.053291
0.733280 -0.730000 -0.128481 0.000567	-0.058644
0.732258 -0.730000 -0.128145 0.000715	-0.075319
0.731963 -0.730000 -0.128048 0.000769	-0.080486
0.731022 -0.730000 -0.127739 0.000901	-0.096187
0.730823 -0.730000 -0.127673 0.000926	-0.099536
0.730445 -0.730000 -0.127549 0.000991	-0.105892
0.729714 -0.730000 -0.127309 0.001116	-0.117561
0.729215 -0.730000 -0.127145 0.001199	-0.125544
0.728670 -0.730000 -0.126967 0.001286	-0.134262
0.727999 -0.730000 -0.126746 0.001391	-0.144780
0.727853 -0.730000 -0.126698 0.001408	-0.147043
0.727182 -0.730000 -0.126478 0.001476	-0.156269
0.726647 -0.730000 -0.126303 0.001564	-0.163866
0.726508 -0.730000 -0.126258 0.001579	-0.165712
0.726320 -0.730000 -0.126196 0.001606	-0.168578
0.725711 -0.730000 -0.125997 0.001680	-0.177496
0.725425 -0.730000 -0.125903 0.001706	-0.181798
0.724508 -0.730000 -0.125603 0.001799	-0.193053
0.723982 -0.730000 -0.125431 0.001861	-0.200109
0.723063 -0.730000 -0.125131 0.001946	-0.211836
0.722817 -0.730000 -0.125050 0.001966	-0.214922
0.722593 -0.730000 -0.124977 0.001987	-0.217387
0.721662 -0.730000 -0.124673 0.002095	-0.228306
0.720787 -0.730000 -0.124387 0.002181	-0.239825
0.720645 -0.730000 -0.124341 0.002192	-0.241594
0.720490 -0.730000 -0.124290 0.002208	-0.243638
0.719458 -0.730000 -0.123953 0.002298	-0.255466
0.718972 -0.730000 -0.123795 0.002339	-0.260791
0.718498 -0.730000 -0.123640 0.002379	-0.266115
0.717644 -0.730000 -0.123362 0.002451	-0.274061
0.716677 -0.730000 -0.123047 0.002498	-0.285399
0.716537 -0.730000 -0.123001 0.002507	-0.286842
0.715543 -0.730000 -0.122678 0.002602	-0.296553
0.714831 -0.730000 -0.122446 0.002685	-0.303744
0.714290 -0.730000 -0.122271 0.002732	-0.308873
0.713637 -0.730000 -0.122058 0.002769	-0.314591
0.713020 -0.730000 -0.121858 0.002826	-0.321730
0.711657 -0.730000 -0.121415 0.002886	-0.334492
0.710824 -0.730000 -0.121145 0.002928	-0.342169
0.708586 -0.730000 -0.120420 0.003094	-0.362533
0.708417 -0.730000 -0.120365 0.003106	-0.364075
0.707979 -0.730000 -0.120223 0.003133	-0.367993
0.706392 -0.730000 -0.119709 0.003233	-0.381690
0.705963 -0.730000 -0.119571 0.003242	-0.385137
0.704614 -0.730000 -0.119134 0.003273	-0.396800
0.703987 -0.730000 -0.118932 0.003313	-0.401990
0.702273 -0.730000 -0.118379 0.003436	-0.415757
0.700722 -0.730000 -0.117878 0.003495	-0.428537
0.699568 -0.730000 -0.117507 0.003543	-0.438690
0.698219 -0.730000 -0.117072 0.003609	-0.448779
0.697278 -0.730000 -0.116769 0.003659	-0.455915
0.696051 -0.730000 -0.116375 0.003722	-0.464718
0.694835 -0.730000 -0.115984 0.003791	-0.474544
0.693276 -0.730000 -0.115484 0.003808	-0.486723
0.692646 -0.730000 -0.115281 0.003804	-0.491208
0.691190 -0.730000 -0.114815 0.003838	-0.501717
0.690221 -0.730000 -0.114504 0.003863	-0.508357
0.689954 -0.730000 -0.114419 0.003859	-0.510242
0.689387 -0.730000 -0.114237 0.003862	-0.514254
0.687618 -0.730000 -0.113671 0.003867	-0.526535
0.685362 -0.730000 -0.112950 0.004002	-0.541550
0.685335 -0.730000 -0.112941 0.004004	-0.541727
0.685314 -0.730000 -0.112934 0.004005	-0.541869
0.682441 -0.730000 -0.112017 0.004112	-0.561420
0.682187 -0.730000 -0.111937 0.004121	-0.563019
0.679924 -0.730000 -0.111215 0.004222	-0.577498
0.679383 -0.730000 -0.111043 0.004240	-0.580887
0.678431 -0.730000 -0.110741 0.004301	-0.587294
0.677435 -0.730000 -0.110424 0.004347	-0.593092
0.676985 -0.730000 -0.110280 0.004370	-0.596193
0.675471 -0.730000 -0.109800 0.004439	-0.605988
0.675091 -0.730000 -0.109679 0.004447	-0.608299
0.674142 -0.730000 -0.109378 0.004505	-0.615395
0.673138 -0.730000 -0.109059 0.004551	-0.621142
0.671826 -0.730000 -0.108643 0.004597	-0.629759
0.671049 -0.730000 -0.108397 0.004618	-0.633725
0.670339 -0.730000 -0.108173 0.004625	-0.637898
0.668806 -0.730000 -0.107687 0.004617	-0.645132
0.667193 -0.730000 -0.107177 0.004634	-0.654395
0.666337 -0.730000 -0.106907 0.004649	-0.658581
0.665826 -0.730000 -0.106746 0.004666	-0.661890
0.663977 -0.730000 -0.106162 0.004730	-0.672144
0.662737 -0.730000 -0.105771 0.004769	-0.679547
0.661369 -0.730000 -0.105340 0.004822	-0.686914
0.660204 -0.730000 -0.104973 0.004896	-0.694476
0.659325 -0.730000 -0.104697 0.004935	-0.698262
0.658769 -0.730000 -0.104522 0.004988	-0.702108
0.657233 -0.730000 -0.104039 0.005016	-0.709434
0.655489 -0.730000 -0.103491 0.005042	-0.719409
0.655333 -0.730000 -0.103443 0.005046	-0.720144
0.655231 -0.730000 -0.103410 0.005049	-0.720724
0.653410 -0.730000 -0.102839 0.005097	-0.728300
0.652365 -0.730000 -0.102512 0.005137	-0.734533
0.651701 -0.730000 -0.102304 0.005146	-0.736922
0.650969 -0.730000 -0.102075 0.005171	-0.741124
0.650134 -0.730000 -0.101813 0.005171	-0.743143
0.649353 -0.730000 -0.101569 0.005193	-0.748754
0.648517 -0.730000 -0.101308 0.005197	-0.751871
0.647297 -0.730000 -0.100926 0.005270	-0.759721
0.646875 -0.730000 -0.100795 0.005286	-0.761338
0.645964 -0.730000 -0.100510 0.005296	-0.766004
0.644856 -0.730000 -0.100164 0.005297	-0.770251
0.644471 -0.730000 -0.100044 0.005305	-0.772380
0.642268 -0.730000 -0.099357 0.005309	-0.782348
0.641423 -0.730000 -0.099094 0.005327	-0.786426
0.640118 -0.730000 -0.098688 0.005363	-0.791645
0.638683 -0.730000 -0.098241 0.005403	-0.799222
0.638554 -0.730000 -0.098201 0.005408	-0.799419
0.638461 -0.730000 -0.098172 0.005408	-0.799985
0.636816 -0.730000 -0.097661 0.005418	-0.806501
0.636111 -0.730000 -0.097442 0.005456	-0.811446
0.635103 -0.730000 -0.097130 0.005503	-0.816003
0.634145 -0.730000 -0.096832 0.005574	-0.821893
0.633502 -0.730000 -0.096633 0.005601	-0.823206
0.633212 -0.730000 -0.096543 0.005605	-0.824599
0.631867 -0.730000 -0.096127 0.005595	-0.830342
0.631683 -0.730000 -0.096070 0.005602	-0.831049
0.629758 -0.730000 -0.095474 0.005664	-0.839803
0.629653 -0.730000 -0.095441 0.005666	-0.840129
0.629283 -0.730000 -0.095327 0.005673	-0.842250
0.627588 -0.730000 -0.094803 0.005699	-0.848463
0.626014 -0.730000 -0.094317 0.005738	-0.855955
0.625889 -0.730000 -0.094278 0.005740	-0.856545
0.624160 -0.730000 -0.093745 0.005782	-0.862808
0.622782 -0.730000 -0.093320 0.005801	-0.869495
0.622104 -0.730000 -0.093111 0.005816	-0.872351
0.621034 -0.730000 -0.092782 0.005852	-0.877552
0.619979 -0.730000 -0.092457 0.005890	-0.882195
0.619143 -0.730000 -0.092200 0.005921	-0.886742
0.617778 -0.730000 -0.091780 0.005964	-0.892687
0.616716 -0.730000 -0.091454 0.005969	-0.896965
0.615590 -0.730000 -0.091108 0.005975	-0.900788
0.614236 -0.730000 -0.090693 0.006003	-0.906632
0.613492 -0.730000 -0.090464 0.006012	-0.908626
0.613236 -0.730000 -0.090386 0.006021	-0.910076
0.611367 -0.730000 -0.089813 0.006095	-0.916164
0.611128 -0.730000 -0.089740 0.006106	-0.916185
0.609750 -0.730000 -0.089318 0.006120	-0.922547
0.609143 -0.730000 -0.089132 0.006119	-0.924365
0.609010 -0.730000 -0.089091 0.006123	-0.924833
0.608650 -0.730000 -0.088981 0.006137	-0.926592
0.606887 -0.730000 -0.088443 0.006181	-0.931327
0.605785 -0.730000 -0.088106 0.006211	-0.937367
0.604887 -0.730000 -0.087832 0.006222	-0.939175
0.604448 -0.730000 -0.087698 0.006229	-0.941614
0.602988 -0.730000 -0.087253 0.006266	-0.946060
0.601614 -0.730000 -0.086835 0.006317	-0.953898
0.601373 -0.730000 -0.086762 0.006316	-0.953717
0.601310 -0.730000 -0.086742 0.006318	-0.954301
0.601135 -0.730000 -0.086689 0.006319	-0.955105
0.599414 -0.730000 -0.086165 0.006328	-0.957371
0.597992 -0.730000 -0.085733 0.006332	-0.963770
0.597530 -0.730000 -0.085593 0.006326	-0.964269
0.597067 -0.730000 -0.085452 0.006343	-0.966363
0.595746 -0.730000 -0.085051 0.006350	-0.964800
0.594829 -0.730000 -0.084773 0.006403	-0.974300
0.594141 -0.730000 -0.084564 0.006413	-0.976358
0.592907 -0.730000 -0.084190 0.006410	-0.981724
0.592017 -0.730000 -0.083920 0.006397	-0.981995
0.591649 -0.730000 -0.083809 0.006388	-0.981895
0.589877 -0.730000 -0.083272 0.006446	-0.985508
0.589661 -0.730000 -0.083207 0.006453	-0.986098
0.588246 -0.730000 -0.082779 0.006445	-0.986609
0.587577 -0.730000 -0.082577 0.006488	-0.989287
0.586644 -0.730000 -0.082295 0.006508	-0.990746
0.585675 -0.730000 -0.082002 0.006531	-0.995762
0.584947 -0.730000 -0.081782 0.006540	-0.997263
0.583926 -0.730000 -0.081474 0.006551	-0.996012
0.582767 -0.730000 -0.081124 0.006588	-1.002208
0.582224 -0.730000 -0.080960 0.006593	-1.002424
0.581691 -0.730000 -0.080800 0.006610	-1.005237
0.580131 -0.730000 -0.080330 0.006640	-1.009084
0.579072 -0.730000 -0.080011 0.006612	-1.009138
0.578072 -0.730000 -0.079710 0.006589	-1.007572
0.576974 -0.730000 -0.079380 0.006611	-1.010281
0.576065 -0.730000 -0.079107 0.006629	-1.009098
0.575530 -0.730000 -0.078947 0.006625	-1.009843
0.573820 -0.730000 -0.078433 0.006624	-1.010285
0.573232 -0.730000 -0.078257 0.006620	-1.011103
0.571934 -0.730000 -0.077868 0.006632	-1.017536
0.571573 -0.730000 -0.077760 0.006625	-1.017102
0.571371 -0.730000 -0.077700 0.006635	-1.017963
0.570070 -0.730000 -0.077310 0.006650	-1.012297
0.569033 -0.730000 -0.077000 0.006670	-1.014568
0.568298 -0.730000 -0.076780 0.006681	-1.014452
0.567214 -0.730000 -0.076456 0.006694	-1.015589
0.566563 -0.730000 -0.076261 0.006690	-1.014957
0.565438 -0.730000 -0.075925 0.006713	-1.017371
0.565005 -0.730000 -0.075795 0.006719	-1.016001
0.563207 -0.730000 -0.075259 0.006764	-1.021975
0.563101 -0.730000 -0.075227 0.006765	-1.021827
0.563066 -0.730000 -0.075217 0.006764	-1.021813
0.562786 -0.730000 -0.075133 0.006763	-1.021938
0.561094 -0.730000 -0.074629 0.006738	-1.018750
0.560924 -0.730000 -0.074578 0.006738	-1.019071
0.559316 -0.730000 -0.074099 0.006719	-1.016145
0.558868 -0.730000 -0.073966 0.006717	-1.017084
0.557157 -0.730000 -0.073457 0.006715	-1.018851
0.556884 -0.730000 -0.073376 0.006711	-1.017965
0.556801 -0.730000 -0.073351 0.006714	-1.017946
0.556671 -0.730000 -0.073312 0.006716	-1.018133
0.554775 -0.730000 -0.072749 0.006749	-1.011193
0.553684 -0.730000 -0.072425 0.006760	-1.011822
0.552980 -0.730000 -0.072216 0.006757	-1.008051
0.552053 -0.730000 -0.071941 0.006755	-1.010453
0.551571 -0.730000 -0.071798 0.006751	-1.008705
0.550634 -0.730000 -0.071521 0.006742	-1.010938
0.549913 -0.730000 -0.071307 0.006734	-1.009224
0.549641 -0.730000 -0.071227 0.006730	-1.010291
0.548128 -0.730000 -0.070779 0.006721	-1.003896
0.547168 -0.730000 -0.070495 0.006749	-1.002771
0.545896 -0.730000 -0.070119 0.006739	-1.002849
0.545517 -0.730000 -0.070007 0.006733	-1.001428
0.544801 -0.730000 -0.069796 0.006750	-1.004290
0.543872 -0.730000 -0.069521 0.006764	-1.001207
0.543552 -0.730000 -0.069427 0.006761	-1.002280
0.542213 -0.730000 -0.069032 0.006739	-0.993962
0.541575 -0.730000 -0.068844 0.006731	-0.993362
0.539905 -0.730000 -0.068351 0.006729	-0.992659
0.539666 -0.730000 -0.068281 0.006727	-0.989818
0.539523 -0.730000 -0.068239 0.006728	-0.989840
0.537950 -0.730000 -0.067775 0.006759	-0.988614
0.537776 -0.730000 -0.067724 0.006758	-0.989307
0.536532 -0.730000 -0.067358 0.006738	-0.981641
0.535002 -0.730000 -0.066908 0.006699	-0.982031
0.534854 -0.730000 -0.066865 0.006697	-0.980803
0.534794 -0.730000 -0.066847 0.006696	-0.980544
0.534465 -0.730000 -0.066751 0.006689	-0.980972
0.533147 -0.730000 -0.066364 0.006664	-0.975735
0.532613 -0.730000 -0.066207 0.006661	-0.975277
0.531526 -0.730000 -0.065888 0.006663	-0.967346
0.530411 -0.730000 -0.065561 0.006640	-0.967717
0.529990 -0.730000 -0.065438 0.006623	-0.964642
0.529249 -0.730000 -0.065221 0.006614	-0.963200
0.528571 -0.730000 -0.065022 0.006605	-0.957234
0.528313 -0.730000 -0.064947 0.006596	-0.957331
0.526744 -0.730000 -0.064488 0.006601	-0.949145
0.525969 -0.730000 -0.064262 0.006597	-0.951405
0.525058 -0.730000 -0.063995 0.006592	-0.947511
0.524055 -0.730000 -0.063702 0.006599	-0.942040
0.522804 -0.730000 -0.063337 0.006607	-0.942786
0.522469 -0.730000 -0.063239 0.006603	-0.941515
0.521321 -0.730000 -0.062905 0.006574	-0.937314
0.520534 -0.730000 -0.062675 0.006549	-0.932536
0.520360 -0.730000 -0.062624 0.006548	-0.932571
0.518299 -0.730000 -0.062024 0.006515	-0.923021
0.517766 -0.730000 -0.061869 0.006499	-0.919334
0.516079 -0.730000 -0.061378 0.006504	-0.913496
0.515080 -0.730000 -0.061087 0.006484	-0.912756
0.514242 -0.730000 -0.060844 0.006462	-0.909701
0.513888 -0.730000 -0.060741 0.006458	-0.908523
0.512164 -0.730000 -0.060240 0.006433	-0.900288
0.511219 -0.730000 -0.059966 0.006413	-0.897448
0.510263 -0.730000 -0.059688 0.006423	-0.892058
0.509005 -0.730000 -0.059324 0.006474	-0.886667
0.508578 -0.730000 -0.059200 0.006466	-0.883296
0.507330 -0.730000 -0.058839 0.006440	-0.878898
0.506906 -0.730000 -0.058716 0.006430	-0.877828
0.505748 -0.730000 -0.058381 0.006396	-0.871331
0.504577 -0.730000 -0.058042 0.006405	-0.868374
0.503986 -0.730000 -0.057872 0.006403	-0.864036
0.503094 -0.730000 -0.057614 0.006384	-0.865199
0.502186 -0.730000 -0.057352 0.006350	-0.860514
0.501784 -0.730000 -0.057236 0.006375	-0.860483
0.500300 -0.730000 -0.056808 0.006374	-0.847543
0.499353 -0.730000 -0.056535 0.006299	-0.843116
0.497483 -0.730000 -0.055996 0.006267	-0.837178
0.497001 -0.730000 -0.055858 0.006255	-0.834269
0.495599 -0.730000 -0.055455 0.006226	-0.827184
0.494672 -0.730000 -0.055188 0.006205	-0.820617
0.494551 -0.730000 -0.055153 0.006202	-0.820197
0.493363 -0.730000 -0.054812 0.006197	-0.814948
0.492774 -0.730000 -0.054643 0.006191	-0.811449
0.492668 -0.730000 -0.054612 0.006189	-0.810887
0.491511 -0.730000 -0.054280 0.006131	-0.799690
0.490141 -0.730000 -0.053887 0.006141	-0.803686
0.489947 -0.730000 -0.053832 0.006140	-0.802573
0.489651 -0.730000 -0.053747 0.006133	-0.802002
0.488203 -0.730000 -0.053332 0.006109	-0.791315
0.486942 -0.730000 -0.052971 0.006081	-0.786619
0.486459 -0.730000 -0.052833 0.006078	-0.781854
0.485930 -0.730000 -0.052681 0.006064	-0.779946
0.484824 -0.730000 -0.052365 0.006025	-0.769713
0.483316 -0.730000 -0.051934 0.006027	-0.764227
0.482946 -0.730000 -0.051828 0.006024	-0.762009
0.482442 -0.730000 -0.051684 0.006011	-0.760822
0.480917 -0.730000 -0.051249 0.005972	-0.753435
0.479726 -0.730000 -0.050909 0.005942	-0.748631
0.478886 -0.730000 -0.050670 0.005931	-0.742873
0.478388 -0.730000 -0.050528 0.005923	-0.741198
0.476714 -0.730000 -0.050051 0.005913	-0.734036
0.476307 -0.730000 -0.049935 0.005907	-0.732801
0.475007 -0.730000 -0.049565 0.005880	-0.725128
0.473782 -0.730000 -0.049216 0.005880	-0.718997
0.473059 -0.730000 -0.049011 0.005872	-0.714965
0.471691 -0.730000 -0.048622 0.005841	-0.704404
0.471168 -0.730000 -0.048474 0.005832	-0.701129
0.470062 -0.730000 -0.048160 0.005815	-0.699448
0.469378 -0.730000 -0.047966 0.005802	-0.698230
0.467832 -0.730000 -0.047528 0.005794	-0.690334
0.467654 -0.730000 -0.047478 0.005791	-0.688348
0.467392 -0.730000 -0.047404 0.005797	-0.687799
0.465946 -0.730000 -0.046994 0.005812	-0.677754
0.464424 -0.730000 -0.046564 0.005800	-0.672090
0.463953 -0.730000 -0.046431 0.005785	-0.668152
0.463598 -0.730000 -0.046331 0.005779	-0.668627
0.461877 -0.730000 -0.045845 0.005757	-0.661286
0.461233 -0.730000 -0.045663 0.005735	-0.656138
0.459107 -0.730000 -0.045065 0.005670	-0.646905
0.458887 -0.730000 -0.045003 0.005670	-0.645709
0.458680 -0.730000 -0.044944 0.005674	-0.645342
0.456845 -0.730000 -0.044428 0.005626	-0.635015
0.455428 -0.730000 -0.044030 0.005601	-0.631439
0.455021 -0.730000 -0.043915 0.005597	-0.629496
0.454829 -0.730000 -0.043861 0.005601	-0.628777
0.452955 -0.730000 -0.043335 0.005596	-0.614487
0.451490 -0.730000 -0.042924 0.005578	-0.610589
0.450845 -0.730000 -0.042743 0.005567	-0.608405
0.449782 -0.730000 -0.042444 0.005553	-0.604314
0.449112 -0.730000 -0.042257 0.005557	-0.603193
0.448292 -0.730000 -0.042027 0.005562	-0.601974
0.447852 -0.730000 -0.041904 0.005552	-0.600041
0.447414 -0.730000 -0.041781 0.005554	-0.598576
0.446797 -0.730000 -0.041608 0.005546	-0.594213
0.446388 -0.730000 -0.041494 0.005538	-0.591712
0.445618 -0.730000 -0.041279 0.005527	-0.586682
0.444808 -0.730000 -0.041052 0.005511	-0.583544
0.443335 -0.730000 -0.040640 0.005494	-0.580506
0.443059 -0.730000 -0.040563 0.005490	-0.579357
0.441948 -0.730000 -0.040253 0.005457	-0.569019
0.440771 -0.730000 -0.039925 0.005427	-0.566205
0.439836 -0.730000 -0.039664 0.005420	-0.562492
0.438035 -0.730000 -0.039163 0.005373	-0.559287
0.437964 -0.730000 -0.039143 0.005372	-0.558885
0.437806 -0.730000 -0.039099 0.005372	-0.558315
0.435846 -0.730000 -0.038554 0.005383	-0.545028
0.433912 -0.730000 -0.038016 0.005365	-0.540242
0.433895 -0.730000 -0.038012 0.005365	-0.540133
0.433873 -0.730000 -0.038006 0.005364	-0.540089
0.432113 -0.730000 -0.037517 0.005324	-0.527764
0.430857 -0.730000 -0.037169 0.005294	-0.523572
0.430204 -0.730000 -0.036988 0.005285	-0.520510
0.428947 -0.730000 -0.036640 0.005302	-0.513745
0.428303 -0.730000 -0.036461 0.005299	-0.511678
0.427253 -0.730000 -0.036171 0.005270	-0.502762
0.425554 -0.730000 -0.035701 0.005293	-0.499945
0.425282 -0.730000 -0.035626 0.005296	-0.499135
0.425038 -0.730000 -0.035559 0.005283	-0.497771
0.422903 -0.730000 -0.034970 0.005217	-0.489785
0.422771 -0.730000 -0.034933 0.005216	-0.489059
0.420436 -0.730000 -0.034290 0.005167	-0.479575
0.420286 -0.730000 -0.034248 0.005164	-0.479218
0.419312 -0.730000 -0.033980 0.005151	-0.476503
0.417667 -0.730000 -0.033528 0.005126	-0.469927
0.417187 -0.730000 -0.033396 0.005125	-0.468524
0.416013 -0.730000 -0.033073 0.005095	-0.463625
0.414358 -0.730000 -0.032618 0.005070	-0.456658
0.413008 -0.730000 -0.032248 0.005049	-0.450365
0.411791 -0.730000 -0.031914 0.005037	-0.444825
0.411233 -0.730000 -0.031761 0.005025	-0.443406
0.409290 -0.730000 -0.031229 0.004996	-0.436452
0.407803 -0.730000 -0.030822 0.004984	-0.429566
0.407182 -0.730000 -0.030652 0.004976	-0.425139
0.406789 -0.730000 -0.030545 0.004997	-0.429048
0.405644 -0.730000 -0.030232 0.005025	-0.426439
0.404744 -0.730000 -0.029987 0.005003	-0.422046
0.403533 -0.730000 -0.029656 0.004968	-0.419428
0.402319 -0.730000 -0.029326 0.004956	-0.415189
0.400935 -0.730000 -0.028949 0.004946	-0.412910
0.399981 -0.730000 -0.028689 0.004942	-0.406972
0.398432 -0.730000 -0.028268 0.004902	-0.398489
0.397823 -0.730000 -0.028103 0.004884	-0.396243
0.396066 -0.730000 -0.027626 0.004894	-0.389654
0.395570 -0.730000 -0.027492 0.004888	-0.387589
0.394297 -0.730000 -0.027147 0.004864	-0.386608
0.393394 -0.730000 -0.026903 0.004850	-0.383967
0.392698 -0.730000 -0.026714 0.004837	-0.382996
0.391061 -0.730000 -0.026271 0.004816	-0.374408
0.390156 -0.730000 -0.026027 0.004810	-0.375638
0.389113 -0.730000 -0.025745 0.004793	-0.370453
0.387584 -0.730000 -0.025332 0.004755	-0.365554
0.386915 -0.730000 -0.025152 0.004756	-0.365406
0.385188 -0.730000 -0.024686 0.004766	-0.360567
0.384518 -0.730000 -0.024506 0.004767	-0.357719
0.383790 -0.730000 -0.024310 0.004743	-0.354741
0.382468 -0.730000 -0.023954 0.004710	-0.349193
0.381036 -0.730000 -0.023569 0.004700	-0.346633
0.380431 -0.730000 -0.023407 0.004692	-0.345283
0.379710 -0.730000 -0.023213 0.004688	-0.344365
0.378240 -0.730000 -0.022819 0.004663	-0.337768
0.376218 -0.730000 -0.022277 0.004620	-0.336533
0.375732 -0.730000 -0.022146 0.004613	-0.334569
0.375488 -0.730000 -0.022081 0.004604	-0.334138
0.374252 -0.730000 -0.021751 0.004603	-0.330021
0.373360 -0.730000 -0.021512 0.004598	-0.325634
0.373106 -0.730000 -0.021444 0.004591	-0.325762
0.371722 -0.730000 -0.021075 0.004533	-0.319289
0.370597 -0.730000 -0.020775 0.004520	-0.318192
0.369846 -0.730000 -0.020574 0.004517	-0.314981
0.369104 -0.730000 -0.020376 0.004511	-0.312871
0.367484 -0.730000 -0.019945 0.004527	-0.307062
0.365895 -0.730000 -0.019522 0.004503	-0.305008
0.365356 -0.730000 -0.019378 0.004493	-0.303584
0.363438 -0.730000 -0.018869 0.004491	-0.299594
0.362976 -0.730000 -0.018746 0.004489	-0.298854
0.361776 -0.730000 -0.018428 0.004476	-0.292335
0.361095 -0.730000 -0.018247 0.004472	-0.291723
0.359919 -0.730000 -0.017936 0.004452	-0.288768
0.358869 -0.730000 -0.017658 0.004422	-0.286425
0.357544 -0.730000 -0.017308 0.004383	-0.282466
0.356214 -0.730000 -0.016956 0.004377	-0.278547
0.355048 -0.730000 -0.016648 0.004374	-0.273779
0.353535 -0.730000 -0.016250 0.004336	-0.269285
0.352810 -0.730000 -0.016059 0.004329	-0.266366
0.351346 -0.730000 -0.015673 0.004321	-0.269264
0.350517 -0.730000 -0.015455 0.004307	-0.267534
0.348482 -0.730000 -0.014920 0.004270	-0.260238
0.348107 -0.730000 -0.014822 0.004267	-0.259952
0.346404 -0.730000 -0.014375 0.004246	-0.256328
0.344914 -0.730000 -0.013984 0.004231	-0.252475
0.344653 -0.730000 -0.013916 0.004225	-0.252460
0.344356 -0.730000 -0.013838 0.004231	-0.252691
0.342252 -0.730000 -0.013287 0.004246	-0.248743
0.340439 -0.730000 -0.012813 0.004247	-0.245570
0.340390 -0.730000 -0.012801 0.004247	-0.245514
0.340152 -0.730000 -0.012738 0.004243	-0.244744
0.338548 -0.730000 -0.012320 0.004216	-0.239437
0.338307 -0.730000 -0.012257 0.004212	-0.239322
0.336822 -0.730000 -0.011870 0.004164	-0.238113
0.335918 -0.730000 -0.011635 0.004129	-0.236836
0.334968 -0.730000 -0.011388 0.004131	-0.235933
0.334375 -0.730000 -0.011233 0.004130	-0.234484
0.333178 -0.730000 -0.010922 0.004103	-0.238040
0.332996 -0.730000 -0.010875 0.004106	-0.237978
0.332431 -0.730000 -0.010728 0.004105	-0.234398
0.331690 -0.730000 -0.010536 0.004100	-0.227980
0.331294 -0.730000 -0.010433 0.004110	-0.227500
0.330261 -0.730000 -0.010166 0.004128	-0.223548
0.328873 -0.730000 -0.009806 0.004096	-0.218645
0.328166 -0.730000 -0.009623 0.004079	-0.216592
0.327859 -0.730000 -0.009544 0.004078	-0.215444
0.327220 -0.730000 -0.009379 0.004069	-0.215192
0.325486 -0.730000 -0.008931 0.004042	-0.214524
0.323815 -0.730000 -0.008500 0.004004	-0.211396
0.323216 -0.730000 -0.008345 0.003990	-0.210946
0.322817 -0.730000 -0.008243 0.003985	-0.210190
0.321212 -0.730000 -0.007829 0.003983	-0.209009
0.318907 -0.730000 -0.007237 0.003942	-0.204981
0.318719 -0.730000 -0.007188 0.003937	-0.204755
0.318520 -0.730000 -0.007137 0.003937	-0.204440
0.316053 -0.730000 -0.006504 0.003839	-0.202852
0.315760 -0.730000 -0.006429 0.003825	-0.202176
0.315391 -0.730000 -0.006335 0.003824	-0.201852
0.313601 -0.730000 -0.005876 0.003863	-0.197067
0.312515 -0.730000 -0.005599 0.003850	-0.196101
0.311250 -0.730000 -0.005276 0.003819	-0.194314
0.309997 -0.730000 -0.004956 0.003792	-0.192231
0.309085 -0.730000 -0.004723 0.003777	-0.190983
0.307796 -0.730000 -0.004395 0.003757	-0.190969
0.306976 -0.730000 -0.004186 0.003719	-0.187351
0.305413 -0.730000 -0.003789 0.003770	-0.184438
0.304955 -0.730000 -0.003673 0.003798	-0.184881
0.303147 -0.730000 -0.003214 0.003827	-0.183093
0.303030 -0.730000 -0.003184 0.003828	-0.182892
0.302995 -0.730000 -0.003175 0.003828	-0.182873
0.301249 -0.730000 -0.002733 0.003772	-0.179652
0.300400 -0.730000 -0.002518 0.003768	-0.183124
0.299811 -0.730000 -0.002369 0.003763	-0.181583
0.298246 -0.730000 -0.001974 0.003707	-0.176291
0.297785 -0.730000 -0.001858 0.003703	-0.176297
0.296897 -0.730000 -0.001634 0.003693	-0.173406
0.295612 -0.730000 -0.001310 0.003698	-0.172327
0.293326 -0.730000 -0.000734 0.003708	-0.173230
0.293304 -0.730000 -0.000729 0.003708	-0.173115
0.293272 -0.730000 -0.000721 0.003707	-0.173132
0.291031 -0.730000 -0.000157 0.003626	-0.169381
0.289314 -0.730000 0.000273 0.003662	-0.168017
0.288468 -0.730000 0.000485 0.003668	-0.167207
0.286887 -0.730000 0.000881 0.003621	-0.165307
0.286056 -0.730000 0.001089 0.003596	-0.165835
0.284818 -0.730000 0.001398 0.003583	-0.162946
0.283895 -0.730000 0.001628 0.003593	-0.161262
0.282855 -0.730000 0.001888 0.003588	-0.159896
0.280850 -0.730000 0.002387 0.003543	-0.159137
0.280797 -0.730000 0.002400 0.003540	-0.159080
0.280585 -0.730000 0.002453 0.003540	-0.158844
0.278545 -0.730000 0.002959 0.003539	-0.155582
0.278082 -0.730000 0.003074 0.003535	-0.154668
0.276079 -0.730000 0.003571 0.003526	-0.153839
0.274766 -0.730000 0.003895 0.003499	-0.153197
0.273859 -0.730000 0.004119 0.003482	-0.149754
0.272699 -0.730000 0.004406 0.003445	-0.150574
0.272012 -0.730000 0.004575 0.003435	-0.149768
0.271279 -0.730000 0.004756 0.003405	-0.147503
0.270197 -0.730000 0.005023 0.003387	-0.145297
0.268835 -0.730000 0.005357 0.003404	-0.145270
0.267997 -0.730000 0.005564 0.003418	-0.145917
0.266191 -0.730000 0.006007 0.003408	-0.144658
0.265513 -0.730000 0.006173 0.003398	-0.143956
0.265327 -0.730000 0.006219 0.003400	-0.143855
0.262823 -0.730000 0.006832 0.003379	-0.142743
0.262677 -0.730000 0.006868 0.003378	-0.142666
0.262666 -0.730000 0.006871 0.003378	-0.142653
0.262605 -0.730000 0.006886 0.003377	-0.142631
0.260433 -0.730000 0.007416 0.003359	-0.141178
0.259587 -0.730000 0.007623 0.003352	-0.140756
0.258069 -0.730000 0.007993 0.003319	-0.139195
0.256048 -0.730000 0.008484 0.003304	-0.137712
0.255364 -0.730000 0.008651 0.003296	-0.137063
0.255111 -0.730000 0.008712 0.003296	-0.136889
0.254184 -0.730000 0.008937 0.003295	-0.136337
0.252549 -0.730000 0.009333 0.003301	-0.134879
0.251466 -0.730000 0.009595 0.003288	-0.135068
0.250246 -0.730000 0.009890 0.003294	-0.134602
0.248959 -0.730000 0.010201 0.003296	-0.133374
0.247801 -0.730000 0.010480 0.003296	-0.131655
0.246835 -0.730000 0.010712 0.003290	-0.131349
0.245413 -0.730000 0.011055 0.003260	-0.130679
0.244636 -0.730000 0.011241 0.003266	-0.130241
0.243011 -0.730000 0.011631 0.003269	-0.129170
0.242016 -0.730000 0.011870 0.003263	-0.128840
0.240897 -0.730000 0.012138 0.003241	-0.128141