TITLE     = "Surface mesh and solution"
VARIABLES = "x"
"y"
"z"
"cfx"
"Cp"
DATASETAUXDATA alpha_deg="  0.0000000E+00"
DATASETAUXDATA beta_deg="  0.0000000E+00"
DATASETAUXDATA bref="  0.7500000"
DATASETAUXDATA cref="   1.000000"
DATASETAUXDATA itranflg="           0"
DATASETAUXDATA ivisc="           2"
DATASETAUXDATA mach="  0.2000000"
DATASETAUXDATA reue_mil="   4.600000"
DATASETAUXDATA sref="  0.7500000"
DATASETAUXDATA tinf_r="   521.0000"
DATASETAUXDATA xmc="  0.0000000E+00"
DATASETAUXDATA ymc="  0.0000000E+00"
DATASETAUXDATA zmc="  0.0000000E+00"
ZONE T="Slice: Y=-0.001"
STRANDID=0, SOLUTIONTIME=0
Nodes=1127, Elements=1127, ZONETYPE=FELineSeg
DATAPACKING=POINT
DT=(DOUBLE DOUBLE DOUBLE DOUBLE DOUBLE )
-0.246348 -0.001000 0.042381 0.001248	-0.538275
-0.246367 -0.001000 0.042188 0.001050	-0.495003
-0.246377 -0.001000 0.042080 0.000952	-0.474520
-0.246383 -0.001000 0.042008 0.000907	-0.464449
-0.246401 -0.001000 0.041776 0.000744	-0.431804
-0.246418 -0.001000 0.041483 0.000512	-0.400753
-0.246421 -0.001000 0.041438 0.000480	-0.394440
-0.246423 -0.001000 0.041379 0.000445	-0.383380
-0.246433 -0.001000 0.041103 0.000285	-0.332320
-0.246437 -0.001000 0.040940 0.000165	-0.318742
-0.246439 -0.001000 0.040714 0.000016	-0.286681
-0.246439 -0.001000 0.040675 -0.000005	-0.281987
-0.246439 -0.001000 0.040639 -0.000028	-0.274943
-0.246436 -0.001000 0.040343 -0.000199	-0.230592
-0.246425 -0.001000 0.039997 -0.000378	-0.184741
-0.246424 -0.001000 0.039982 -0.000386	-0.182486
-0.246423 -0.001000 0.039958 -0.000398	-0.179992
-0.246400 -0.001000 0.039548 -0.000599	-0.112377
-0.246380 -0.001000 0.039309 -0.000702	-0.080566
-0.246362 -0.001000 0.039088 -0.000816	-0.034737
-0.246338 -0.001000 0.038869 -0.000921	-0.001783
-0.246316 -0.001000 0.038673 -0.000990	0.019517
-0.246272 -0.001000 0.038346 -0.001093	0.057865
-0.246265 -0.001000 0.038289 -0.001110	0.064608
-0.246263 -0.001000 0.038274 -0.001115	0.066710
-0.246191 -0.001000 0.037829 -0.001309	0.133857
-0.246184 -0.001000 0.037789 -0.001337	0.141667
-0.246170 -0.001000 0.037709 -0.001379	0.152908
-0.246113 -0.001000 0.037411 -0.001547	0.195975
-0.246080 -0.001000 0.037245 -0.001590	0.216700
-0.246010 -0.001000 0.036924 -0.001708	0.261928
-0.245998 -0.001000 0.036873 -0.001722	0.268824
-0.245924 -0.001000 0.036563 -0.001810	0.303698
-0.245910 -0.001000 0.036505 -0.001840	0.310471
-0.245888 -0.001000 0.036423 -0.001833	0.316670
-0.245803 -0.001000 0.036100 -0.001893	0.345405
-0.245711 -0.001000 0.035775 -0.001889	0.382987
-0.245691 -0.001000 0.035709 -0.001895	0.389846
-0.245666 -0.001000 0.035629 -0.001911	0.400856
-0.245557 -0.001000 0.035273 -0.001974	0.445112
-0.245524 -0.001000 0.035173 -0.002007	0.456191
-0.245423 -0.001000 0.034872 -0.001979	0.486101
-0.245396 -0.001000 0.034793 -0.001984	0.494174
-0.245290 -0.001000 0.034496 -0.002055	0.521852
-0.245270 -0.001000 0.034441 -0.002070	0.527622
-0.245188 -0.001000 0.034223 -0.002119	0.545088
-0.245160 -0.001000 0.034148 -0.002131	0.551285
-0.245136 -0.001000 0.034088 -0.002123	0.555568
-0.245048 -0.001000 0.033863 -0.002055	0.571508
-0.244990 -0.001000 0.033722 -0.002014	0.586151
-0.244904 -0.001000 0.033513 -0.001917	0.608258
-0.244809 -0.001000 0.033291 -0.001948	0.628244
-0.244706 -0.001000 0.033054 -0.001981	0.650248
-0.244560 -0.001000 0.032734 -0.001916	0.673438
-0.244490 -0.001000 0.032582 -0.001924	0.682702
-0.244309 -0.001000 0.032207 -0.001907	0.711650
-0.244267 -0.001000 0.032121 -0.001906	0.718623
-0.244217 -0.001000 0.032023 -0.001890	0.725018
-0.244033 -0.001000 0.031662 -0.001826	0.749448
-0.243983 -0.001000 0.031566 -0.001807	0.755153
-0.243790 -0.001000 0.031206 -0.001767	0.778138
-0.243780 -0.001000 0.031187 -0.001762	0.779629
-0.243730 -0.001000 0.031098 -0.001749	0.785359
-0.243592 -0.001000 0.030849 -0.001754	0.802140
-0.243529 -0.001000 0.030739 -0.001706	0.807173
-0.243397 -0.001000 0.030510 -0.001674	0.816895
-0.243252 -0.001000 0.030263 -0.001635	0.826872
-0.243108 -0.001000 0.030025 -0.001606	0.838623
-0.243077 -0.001000 0.029974 -0.001600	0.841255
-0.242892 -0.001000 0.029676 -0.001556	0.855344
-0.242863 -0.001000 0.029629 -0.001543	0.857309
-0.242665 -0.001000 0.029319 -0.001448	0.872065
-0.242628 -0.001000 0.029261 -0.001432	0.874896
-0.242617 -0.001000 0.029244 -0.001429	0.875590
-0.242307 -0.001000 0.028776 -0.001388	0.897139
-0.242235 -0.001000 0.028670 -0.001361	0.900708
-0.241980 -0.001000 0.028300 -0.001268	0.912427
-0.241826 -0.001000 0.028081 -0.001209	0.919483
-0.241574 -0.001000 0.027730 -0.001137	0.927894
-0.241464 -0.001000 0.027580 -0.001097	0.932724
-0.241281 -0.001000 0.027332 -0.001043	0.941817
-0.241154 -0.001000 0.027163 -0.001019	0.945948
-0.240988 -0.001000 0.026945 -0.000993	0.950172
-0.240846 -0.001000 0.026761 -0.000956	0.954160
-0.240557 -0.001000 0.026392 -0.000883	0.962079
-0.240478 -0.001000 0.026292 -0.000868	0.964879
-0.240403 -0.001000 0.026200 -0.000855	0.966136
-0.240100 -0.001000 0.025825 -0.000808	0.975100
-0.239823 -0.001000 0.025493 -0.000754	0.980740
-0.239713 -0.001000 0.025362 -0.000732	0.982804
-0.239383 -0.001000 0.024975 -0.000631	0.988456
-0.239290 -0.001000 0.024868 -0.000607	0.989897
-0.238877 -0.001000 0.024399 -0.000534	0.997059
-0.238861 -0.001000 0.024381 -0.000531	0.997257
-0.238792 -0.001000 0.024305 -0.000515	0.997898
-0.238432 -0.001000 0.023907 -0.000434	1.001240
-0.238209 -0.001000 0.023667 -0.000396	1.002924
-0.237886 -0.001000 0.023321 -0.000346	1.005931
-0.237762 -0.001000 0.023190 -0.000317	1.006611
-0.237111 -0.001000 0.022518 -0.000203	1.008084
-0.237030 -0.001000 0.022435 -0.000189	1.008453
-0.236946 -0.001000 0.022351 -0.000183	1.008751
-0.236397 -0.001000 0.021804 -0.000101	1.011402
-0.236295 -0.001000 0.021704 -0.000089	1.011674
-0.235920 -0.001000 0.021340 -0.000056	1.012793
-0.235856 -0.001000 0.021278 -0.000046	1.012744
-0.235579 -0.001000 0.021013 -0.000003	1.012755
-0.235537 -0.001000 0.020973 0.000003	1.012983
-0.235271 -0.001000 0.020723 0.000044	1.012858
-0.235038 -0.001000 0.020506 0.000076	1.011742
-0.234891 -0.001000 0.020370 0.000096	1.011783
-0.234540 -0.001000 0.020048 0.000149	1.011792
-0.234331 -0.001000 0.019859 0.000168	1.011078
-0.233932 -0.001000 0.019500 0.000228	1.009902
-0.233509 -0.001000 0.019128 0.000270	1.008016
-0.233200 -0.001000 0.018857 0.000288	1.006604
-0.232790 -0.001000 0.018507 0.000325	1.004843
-0.232361 -0.001000 0.018140 0.000372	1.003527
-0.231714 -0.001000 0.017601 0.000430	1.000629
-0.231568 -0.001000 0.017480 0.000445	1.000016
-0.231486 -0.001000 0.017414 0.000451	0.999360
-0.230846 -0.001000 0.016894 0.000492	0.994720
-0.230503 -0.001000 0.016619 0.000516	0.992933
-0.229949 -0.001000 0.016181 0.000551	0.989546
-0.229737 -0.001000 0.016014 0.000568	0.988244
-0.229263 -0.001000 0.015649 0.000607	0.984456
-0.228977 -0.001000 0.015428 0.000629	0.982302
-0.228812 -0.001000 0.015303 0.000645	0.980830
-0.228259 -0.001000 0.014884 0.000661	0.977150
-0.227888 -0.001000 0.014607 0.000690	0.974312
-0.227470 -0.001000 0.014298 0.000731	0.970958
-0.226969 -0.001000 0.013931 0.000754	0.967578
-0.226527 -0.001000 0.013611 0.000782	0.964242
-0.226274 -0.001000 0.013428 0.000784	0.962099
-0.225692 -0.001000 0.013015 0.000812	0.957438
-0.225556 -0.001000 0.012918 0.000816	0.956351
-0.225524 -0.001000 0.012895 0.000818	0.956010
-0.225090 -0.001000 0.012592 0.000855	0.952624
-0.224783 -0.001000 0.012377 0.000878	0.950205
-0.224734 -0.001000 0.012343 0.000884	0.949817
-0.224064 -0.001000 0.011882 0.000915	0.944389
-0.223799 -0.001000 0.011702 0.000936	0.942106
-0.223332 -0.001000 0.011386 0.000959	0.938089
-0.222791 -0.001000 0.011024 0.000942	0.934115
-0.222536 -0.001000 0.010854 0.000944	0.932170
-0.221919 -0.001000 0.010446 0.000973	0.927277
-0.221544 -0.001000 0.010202 0.000982	0.924237
-0.221042 -0.001000 0.009877 0.001001	0.919465
-0.220714 -0.001000 0.009667 0.001016	0.916915
-0.220014 -0.001000 0.009220 0.001025	0.912163
-0.219775 -0.001000 0.009069 0.001030	0.910530
-0.219117 -0.001000 0.008655 0.001075	0.906535
-0.218888 -0.001000 0.008513 0.001086	0.905045
-0.218214 -0.001000 0.008095 0.001099	0.900107
-0.217609 -0.001000 0.007726 0.001091	0.894762
-0.217295 -0.001000 0.007534 0.001096	0.891677
-0.216725 -0.001000 0.007192 0.001121	0.887756
-0.216333 -0.001000 0.006956 0.001137	0.884764
-0.215999 -0.001000 0.006757 0.001146	0.882287
-0.215534 -0.001000 0.006481 0.001152	0.878987
-0.215262 -0.001000 0.006320 0.001166	0.877079
-0.214528 -0.001000 0.005890 0.001175	0.871377
-0.214090 -0.001000 0.005637 0.001164	0.868047
-0.213580 -0.001000 0.005343 0.001179	0.864327
-0.212965 -0.001000 0.004992 0.001176	0.859162
-0.212676 -0.001000 0.004827 0.001168	0.857148
-0.211698 -0.001000 0.004276 0.001203	0.850574
-0.211649 -0.001000 0.004249 0.001204	0.850276
-0.211620 -0.001000 0.004232 0.001205	0.850083
-0.210628 -0.001000 0.003680 0.001240	0.844945
-0.209999 -0.001000 0.003336 0.001251	0.840389
-0.209429 -0.001000 0.003023 0.001255	0.835944
-0.209019 -0.001000 0.002802 0.001260	0.833332
-0.207837 -0.001000 0.002167 0.001306	0.825854
-0.207677 -0.001000 0.002081 0.001316	0.824859
-0.206644 -0.001000 0.001534 0.001320	0.818808
-0.206445 -0.001000 0.001429 0.001321	0.817617
-0.206394 -0.001000 0.001402 0.001322	0.817305
-0.205336 -0.001000 0.000850 0.001344	0.810496
-0.204906 -0.001000 0.000628 0.001348	0.808453
-0.204310 -0.001000 0.000322 0.001357	0.805389
-0.203400 -0.001000 -0.000143 0.001394	0.799545
-0.203271 -0.001000 -0.000209 0.001398	0.798765
-0.202662 -0.001000 -0.000516 0.001423	0.794410
-0.202302 -0.001000 -0.000698 0.001430	0.791823
-0.202078 -0.001000 -0.000809 0.001437	0.790602
-0.201135 -0.001000 -0.001280 0.001433	0.785492
-0.200441 -0.001000 -0.001621 0.001461	0.782879
-0.199921 -0.001000 -0.001877 0.001469	0.780897
-0.199126 -0.001000 -0.002265 0.001465	0.776411
-0.198930 -0.001000 -0.002360 0.001461	0.775271
-0.198830 -0.001000 -0.002409 0.001463	0.774410
-0.198056 -0.001000 -0.002783 0.001473	0.767915
-0.197496 -0.001000 -0.003051 0.001494	0.764891
-0.197133 -0.001000 -0.003225 0.001496	0.763161
-0.196454 -0.001000 -0.003547 0.001511	0.759428
-0.196155 -0.001000 -0.003689 0.001505	0.758056
-0.195499 -0.001000 -0.003997 0.001494	0.755702
-0.194385 -0.001000 -0.004518 0.001549	0.750621
-0.194187 -0.001000 -0.004610 0.001550	0.749644
-0.192811 -0.001000 -0.005245 0.001556	0.743185
-0.192305 -0.001000 -0.005476 0.001565	0.740859
-0.191326 -0.001000 -0.005922 0.001554	0.736542
-0.189891 -0.001000 -0.006567 0.001603	0.729265
-0.189806 -0.001000 -0.006606 0.001603	0.728837
-0.189743 -0.001000 -0.006633 0.001606	0.728531
-0.188060 -0.001000 -0.007380 0.001639	0.720556
-0.187645 -0.001000 -0.007562 0.001634	0.718934
-0.186095 -0.001000 -0.008238 0.001630	0.711594
-0.185824 -0.001000 -0.008355 0.001632	0.710276
-0.184317 -0.001000 -0.009004 0.001670	0.704106
-0.184315 -0.001000 -0.009005 0.001670	0.704098
-0.184312 -0.001000 -0.009006 0.001670	0.704086
-0.182902 -0.001000 -0.009607 0.001708	0.698686
-0.182375 -0.001000 -0.009829 0.001712	0.696414
-0.181532 -0.001000 -0.010184 0.001709	0.692247
-0.180891 -0.001000 -0.010451 0.001725	0.689549
-0.180380 -0.001000 -0.010663 0.001723	0.687735
-0.179468 -0.001000 -0.011041 0.001736	0.684779
-0.179272 -0.001000 -0.011121 0.001733	0.684147
-0.179091 -0.001000 -0.011196 0.001740	0.683524
-0.178050 -0.001000 -0.011623 0.001743	0.680369
-0.177097 -0.001000 -0.012011 0.001783	0.676356
-0.176760 -0.001000 -0.012148 0.001786	0.675059
-0.176293 -0.001000 -0.012336 0.001794	0.673720
-0.175547 -0.001000 -0.012637 0.001784	0.671922
-0.174724 -0.001000 -0.012967 0.001802	0.668585
-0.174055 -0.001000 -0.013234 0.001794	0.666010
-0.173310 -0.001000 -0.013528 0.001815	0.662802
-0.172323 -0.001000 -0.013917 0.001825	0.658280
-0.170761 -0.001000 -0.014526 0.001842	0.653215
-0.170234 -0.001000 -0.014731 0.001835	0.651764
-0.169496 -0.001000 -0.015016 0.001849	0.649534
-0.168381 -0.001000 -0.015445 0.001849	0.646425
-0.167956 -0.001000 -0.015608 0.001853	0.645263
-0.166582 -0.001000 -0.016131 0.001845	0.640838
-0.166245 -0.001000 -0.016259 0.001835	0.639623
-0.165894 -0.001000 -0.016392 0.001847	0.638251
-0.164573 -0.001000 -0.016889 0.001808	0.633248
-0.163050 -0.001000 -0.017457 0.001955	0.628243
-0.162955 -0.001000 -0.017492 0.001961	0.627956
-0.162839 -0.001000 -0.017535 0.001960	0.627648
-0.161140 -0.001000 -0.018161 0.001894	0.623065
-0.160666 -0.001000 -0.018334 0.001891	0.621998
-0.158790 -0.001000 -0.019015 0.001936	0.616019
-0.158592 -0.001000 -0.019087 0.001936	0.615373
-0.157007 -0.001000 -0.019655 0.001982	0.611800
-0.156531 -0.001000 -0.019826 0.001983	0.610737
-0.156401 -0.001000 -0.019872 0.001990	0.610484
-0.154721 -0.001000 -0.020468 0.001926	0.607158
-0.153416 -0.001000 -0.020928 0.001900	0.602244
-0.153215 -0.001000 -0.020998 0.001897	0.601683
-0.151854 -0.001000 -0.021474 0.001949	0.598218
-0.151656 -0.001000 -0.021543 0.001956	0.597690
-0.151015 -0.001000 -0.021764 0.001969	0.596606
-0.150174 -0.001000 -0.022056 0.001933	0.595192
-0.149582 -0.001000 -0.022259 0.001981	0.593699
-0.148650 -0.001000 -0.022580 0.001959	0.590683
-0.147874 -0.001000 -0.022844 0.001994	0.588253
-0.146793 -0.001000 -0.023212 0.001993	0.585463
-0.145655 -0.001000 -0.023596 0.002039	0.583166
-0.144430 -0.001000 -0.024007 0.002109	0.580764
-0.143679 -0.001000 -0.024258 0.002106	0.579616
-0.143433 -0.001000 -0.024341 0.002131	0.579183
-0.141614 -0.001000 -0.024944 0.002072	0.574052
-0.141477 -0.001000 -0.024989 0.002064	0.573618
-0.141102 -0.001000 -0.025113 0.002088	0.572961
-0.139779 -0.001000 -0.025546 0.002074	0.570625
-0.138755 -0.001000 -0.025881 0.002046	0.567714
-0.138146 -0.001000 -0.026078 0.002066	0.566359
-0.136922 -0.001000 -0.026474 0.002067	0.563929
-0.135909 -0.001000 -0.026800 0.002131	0.562457
-0.135192 -0.001000 -0.027029 0.002119	0.561056
-0.133942 -0.001000 -0.027428 0.002109	0.557347
-0.133619 -0.001000 -0.027531 0.002115	0.556599
-0.132283 -0.001000 -0.027953 0.002129	0.553875
-0.131951 -0.001000 -0.028058 0.002115	0.553297
-0.131786 -0.001000 -0.028109 0.002120	0.553000
-0.130187 -0.001000 -0.028611 0.002095	0.551363
-0.128943 -0.001000 -0.028997 0.002099	0.549593
-0.128428 -0.001000 -0.029158 0.002082	0.548913
-0.128299 -0.001000 -0.029197 0.002083	0.548613
-0.126676 -0.001000 -0.029698 0.002071	0.543649
-0.126029 -0.001000 -0.029895 0.002067	0.542552
-0.124466 -0.001000 -0.030373 0.002026	0.540509
-0.123175 -0.001000 -0.030765 0.002043	0.538226
-0.122510 -0.001000 -0.030966 0.002003	0.536778
-0.121808 -0.001000 -0.031177 0.002041	0.535170
-0.120471 -0.001000 -0.031578 0.002040	0.531684
-0.118656 -0.001000 -0.032118 0.002137	0.528944
-0.118102 -0.001000 -0.032283 0.002139	0.528210
-0.116434 -0.001000 -0.032774 0.002127	0.526239
-0.116071 -0.001000 -0.032881 0.002115	0.525823
-0.116017 -0.001000 -0.032897 0.002117	0.525747
-0.114185 -0.001000 -0.033432 0.002046	0.521977
-0.113374 -0.001000 -0.033667 0.002039	0.520166
-0.111442 -0.001000 -0.034225 0.002034	0.517042
-0.110740 -0.001000 -0.034427 0.002028	0.515982
-0.108806 -0.001000 -0.034979 0.002074	0.513316
-0.108230 -0.001000 -0.035144 0.002067	0.512562
-0.105508 -0.001000 -0.035912 0.002025	0.507631
-0.105326 -0.001000 -0.035963 0.002021	0.507216
-0.104840 -0.001000 -0.036098 0.002038	0.506463
-0.102393 -0.001000 -0.036779 0.002060	0.502278
-0.101963 -0.001000 -0.036898 0.002059	0.501730
-0.100013 -0.001000 -0.037433 0.002055	0.499553
-0.099088 -0.001000 -0.037687 0.002026	0.498474
-0.098601 -0.001000 -0.037820 0.002025	0.497986
-0.096213 -0.001000 -0.038469 0.001996	0.495567
-0.094689 -0.001000 -0.038879 0.002024	0.493848
-0.093555 -0.001000 -0.039184 0.001991	0.492733
-0.092270 -0.001000 -0.039527 0.002056	0.491447
-0.090918 -0.001000 -0.039887 0.002057	0.489686
-0.089450 -0.001000 -0.040275 0.001988	0.487254
-0.087810 -0.001000 -0.040706 0.002027	0.485302
-0.085797 -0.001000 -0.041232 0.002088	0.482102
-0.085163 -0.001000 -0.041397 0.002064	0.481394
-0.083209 -0.001000 -0.041903 0.002115	0.479410
-0.081170 -0.001000 -0.042425 0.002059	0.476882
-0.080655 -0.001000 -0.042557 0.002048	0.476055
-0.080163 -0.001000 -0.042682 0.002073	0.475200
-0.078284 -0.001000 -0.043159 0.002019	0.471564
-0.077267 -0.001000 -0.043415 0.002033	0.470154
-0.076031 -0.001000 -0.043726 0.002004	0.468421
-0.074436 -0.001000 -0.044123 0.001933	0.466434
-0.072836 -0.001000 -0.044520 0.001918	0.464576
-0.070683 -0.001000 -0.045050 0.002012	0.463052
-0.070260 -0.001000 -0.045155 0.002017	0.462716
-0.069910 -0.001000 -0.045240 0.002020	0.462541
-0.067248 -0.001000 -0.045889 0.001998	0.460584
-0.065404 -0.001000 -0.046335 0.002049	0.459457
-0.063884 -0.001000 -0.046701 0.002031	0.458137
-0.062174 -0.001000 -0.047111 0.002009	0.456266
-0.061123 -0.001000 -0.047361 0.001993	0.454862
-0.058960 -0.001000 -0.047875 0.001973	0.452284
-0.057854 -0.001000 -0.048136 0.001994	0.451125
-0.055748 -0.001000 -0.048629 0.002034	0.449491
-0.054667 -0.001000 -0.048882 0.002017	0.448387
-0.053613 -0.001000 -0.049127 0.002051	0.447311
-0.051905 -0.001000 -0.049523 0.002021	0.445304
-0.050918 -0.001000 -0.049750 0.002037	0.444452
-0.048970 -0.001000 -0.050198 0.002016	0.442920
-0.046489 -0.001000 -0.050763 0.002036	0.440869
-0.045940 -0.001000 -0.050888 0.002025	0.440382
-0.045295 -0.001000 -0.051033 0.002010	0.439680
-0.043238 -0.001000 -0.051496 0.001937	0.437334
-0.040777 -0.001000 -0.052045 0.001956	0.433665
-0.040226 -0.001000 -0.052168 0.001945	0.432848
-0.039792 -0.001000 -0.052264 0.001949	0.432433
-0.035935 -0.001000 -0.053112 0.001915	0.429926
-0.035215 -0.001000 -0.053270 0.001907	0.429458
-0.035167 -0.001000 -0.053281 0.001907	0.429439
-0.035105 -0.001000 -0.053294 0.001907	0.429384
-0.030615 -0.001000 -0.054267 0.001926	0.426837
-0.028987 -0.001000 -0.054616 0.001934	0.425874
-0.026886 -0.001000 -0.055064 0.001936	0.424223
-0.025008 -0.001000 -0.055463 0.001942	0.422546
-0.022176 -0.001000 -0.056059 0.002103	0.420531
-0.020868 -0.001000 -0.056334 0.002122	0.419446
-0.017594 -0.001000 -0.057015 0.002082	0.417728
-0.017132 -0.001000 -0.057111 0.002084	0.417509
-0.012913 -0.001000 -0.057978 0.002082	0.415376
-0.012018 -0.001000 -0.058160 0.002075	0.414744
-0.008981 -0.001000 -0.058777 0.001969	0.412403
-0.006838 -0.001000 -0.059207 0.001940	0.410125
-0.005475 -0.001000 -0.059481 0.001931	0.408765
-0.002791 -0.001000 -0.060014 0.001838	0.407735
-0.002142 -0.001000 -0.060143 0.001815	0.407296
-0.001042 -0.001000 -0.060358 0.001810	0.406180
0.002506 -0.001000 -0.061055 0.001774	0.402164
0.003693 -0.001000 -0.061285 0.001786	0.401110
0.007104 -0.001000 -0.061944 0.001793	0.398365
0.007603 -0.001000 -0.062040 0.001796	0.397992
0.007866 -0.001000 -0.062090 0.001798	0.397932
0.011503 -0.001000 -0.062783 0.001911	0.397166
0.014045 -0.001000 -0.063262 0.001924	0.396185
0.015728 -0.001000 -0.063579 0.001894	0.395583
0.016059 -0.001000 -0.063641 0.001888	0.395399
0.017852 -0.001000 -0.063974 0.001879	0.394666
0.020768 -0.001000 -0.064517 0.001789	0.393375
0.022359 -0.001000 -0.064809 0.001801	0.392814
0.025713 -0.001000 -0.065425 0.001779	0.391999
0.027874 -0.001000 -0.065817 0.001753	0.390326
0.030256 -0.001000 -0.066249 0.001736	0.388094
0.032190 -0.001000 -0.066597 0.001796	0.386409
0.034336 -0.001000 -0.066981 0.001859	0.385246
0.036457 -0.001000 -0.067358 0.001837	0.384981
0.039252 -0.001000 -0.067851 0.001862	0.383755
0.041820 -0.001000 -0.068304 0.001827	0.382272
0.045370 -0.001000 -0.068920 0.001753	0.380035
0.048052 -0.001000 -0.069385 0.001733	0.378602
0.052482 -0.001000 -0.070143 0.001834	0.375818
0.052905 -0.001000 -0.070215 0.001827	0.375641
0.054599 -0.001000 -0.070500 0.001812	0.374934
0.057516 -0.001000 -0.070993 0.001755	0.373717
0.058357 -0.001000 -0.071133 0.001771	0.373388
0.062671 -0.001000 -0.071851 0.001804	0.371665
0.066574 -0.001000 -0.072491 0.001740	0.370364
0.068587 -0.001000 -0.072821 0.001688	0.369573
0.070000 -0.001000 -0.073050 0.001716	0.368930
0.073726 -0.001000 -0.073651 0.001712	0.366780
0.076254 -0.001000 -0.074055 0.001652	0.366382
0.078404 -0.001000 -0.074397 0.001679	0.365643
0.082292 -0.001000 -0.075010 0.001751	0.363985
0.084060 -0.001000 -0.075287 0.001747	0.363139
0.086721 -0.001000 -0.075700 0.001765	0.362315
0.089960 -0.001000 -0.076204 0.001762	0.360526
0.091091 -0.001000 -0.076378 0.001808	0.360722
0.095443 -0.001000 -0.077044 0.001966	0.360331
0.096769 -0.001000 -0.077246 0.001926	0.360317
0.100646 -0.001000 -0.077831 0.001836	0.358516
0.101792 -0.001000 -0.078003 0.001804	0.357891
0.106077 -0.001000 -0.078643 0.001750	0.356309
0.106314 -0.001000 -0.078678 0.001751	0.356188
0.106669 -0.001000 -0.078731 0.001756	0.356082
0.110485 -0.001000 -0.079294 0.001752	0.354543
0.114857 -0.001000 -0.079933 0.001710	0.353129
0.114952 -0.001000 -0.079947 0.001708	0.353095
0.115002 -0.001000 -0.079954 0.001710	0.353055
0.119987 -0.001000 -0.080675 0.001806	0.350159
0.121505 -0.001000 -0.080893 0.001821	0.349938
0.126948 -0.001000 -0.081667 0.001822	0.349619
0.128258 -0.001000 -0.081853 0.001792	0.349613
0.131711 -0.001000 -0.082337 0.001742	0.347957
0.133979 -0.001000 -0.082655 0.001659	0.346852
0.135235 -0.001000 -0.082828 0.001655	0.346664
0.139564 -0.001000 -0.083427 0.001558	0.345923
0.144108 -0.001000 -0.084048 0.001547	0.345304
0.145031 -0.001000 -0.084173 0.001537	0.345031
0.146363 -0.001000 -0.084353 0.001576	0.344621
0.150731 -0.001000 -0.084942 0.001637	0.343070
0.151698 -0.001000 -0.085071 0.001642	0.342729
0.156447 -0.001000 -0.085701 0.001670	0.340446
0.157799 -0.001000 -0.085880 0.001680	0.340182
0.162668 -0.001000 -0.086517 0.001596	0.340274
0.164370 -0.001000 -0.086739 0.001582	0.339682
0.166053 -0.001000 -0.086955 0.001576	0.339698
0.171275 -0.001000 -0.087627 0.001548	0.337669
0.176406 -0.001000 -0.088278 0.001692	0.335374
0.176794 -0.001000 -0.088327 0.001693	0.335194
0.177047 -0.001000 -0.088359 0.001692	0.335186
0.182813 -0.001000 -0.089081 0.001646	0.334843
0.184047 -0.001000 -0.089234 0.001655	0.334505
0.188399 -0.001000 -0.089772 0.001593	0.333940
0.191698 -0.001000 -0.090175 0.001622	0.333398
0.194806 -0.001000 -0.090553 0.001625	0.332094
0.198096 -0.001000 -0.090951 0.001571	0.330322
0.204884 -0.001000 -0.091762 0.001705	0.329312
0.205006 -0.001000 -0.091777 0.001706	0.329301
0.205209 -0.001000 -0.091801 0.001705	0.329290
0.212534 -0.001000 -0.092664 0.001541	0.328906
0.219588 -0.001000 -0.093481 0.001467	0.327304
0.221803 -0.001000 -0.093738 0.001423	0.326449
0.223774 -0.001000 -0.093964 0.001470	0.326302
0.232645 -0.001000 -0.094970 0.001484	0.325921
0.235016 -0.001000 -0.095238 0.001486	0.326071
0.240469 -0.001000 -0.095845 0.001488	0.325674
0.244281 -0.001000 -0.096269 0.001481	0.325575
0.246519 -0.001000 -0.096514 0.001493	0.325243
0.251853 -0.001000 -0.097096 0.001420	0.324548
0.256433 -0.001000 -0.097592 0.001387	0.323978
0.260259 -0.001000 -0.098003 0.001380	0.324066
0.265997 -0.001000 -0.098612 0.001353	0.324738
0.266989 -0.001000 -0.098716 0.001364	0.324719
0.269027 -0.001000 -0.098929 0.001357	0.324734
0.273810 -0.001000 -0.099428 0.001355	0.324150
0.277087 -0.001000 -0.099765 0.001415	0.323118
0.280758 -0.001000 -0.100142 0.001434	0.321030
0.283553 -0.001000 -0.100426 0.001491	0.320989
0.289082 -0.001000 -0.100983 0.001461	0.320442
0.293911 -0.001000 -0.101465 0.001411	0.319882
0.302368 -0.001000 -0.102297 0.001369	0.318430
0.302646 -0.001000 -0.102324 0.001368	0.318386
0.309212 -0.001000 -0.102960 0.001399	0.317435
0.318660 -0.001000 -0.103863 0.001502	0.318013
0.318743 -0.001000 -0.103871 0.001502	0.318021
0.318793 -0.001000 -0.103875 0.001503	0.318024
0.328522 -0.001000 -0.104788 0.001403	0.318164
0.335771 -0.001000 -0.105458 0.001401	0.317887
0.339432 -0.001000 -0.105795 0.001363	0.317667
0.346544 -0.001000 -0.106440 0.001346	0.317794
0.351614 -0.001000 -0.106900 0.001309	0.317763
0.352875 -0.001000 -0.107012 0.001293	0.317825
0.365047 -0.001000 -0.108087 0.001268	0.317425
0.366186 -0.001000 -0.108186 0.001254	0.317203
0.371415 -0.001000 -0.108637 0.001364	0.316961
0.375754 -0.001000 -0.109010 0.001412	0.316793
0.384700 -0.001000 -0.109765 0.001517	0.317579
0.385817 -0.001000 -0.109859 0.001526	0.317676
0.385894 -0.001000 -0.109866 0.001525	0.317679
0.392011 -0.001000 -0.110374 0.001462	0.317379
0.394324 -0.001000 -0.110563 0.001427	0.317169
0.400092 -0.001000 -0.111035 0.001208	0.317053
0.408600 -0.001000 -0.111720 0.001229	0.317123
0.410940 -0.001000 -0.111908 0.001239	0.316879
0.421050 -0.001000 -0.112705 0.001257	0.317827
0.422810 -0.001000 -0.112842 0.001242	0.318116
0.434283 -0.001000 -0.113726 0.001214	0.319125
0.438722 -0.001000 -0.114065 0.001239	0.319643
0.449153 -0.001000 -0.114849 0.001077	0.321648
0.457645 -0.001000 -0.115477 0.001090	0.322520
0.467494 -0.001000 -0.116189 0.001214	0.322591
0.475355 -0.001000 -0.116748 0.001176	0.323043
0.482783 -0.001000 -0.117269 0.001084	0.323737
0.492833 -0.001000 -0.117958 0.001048	0.324591
0.497013 -0.001000 -0.118242 0.001046	0.325061
0.505103 -0.001000 -0.118780 0.000997	0.326453
0.510324 -0.001000 -0.119126 0.000975	0.327121
0.517987 -0.001000 -0.119623 0.000952	0.327244
0.531932 -0.001000 -0.120505 0.001042	0.329534
0.535502 -0.001000 -0.120729 0.001107	0.330276
0.539551 -0.001000 -0.120976 0.001082	0.331672
0.552835 -0.001000 -0.121777 0.001033	0.335467
0.556964 -0.001000 -0.122024 0.000988	0.336468
0.559862 -0.001000 -0.122192 0.000995	0.337153
0.572855 -0.001000 -0.122945 0.000929	0.339825
0.578148 -0.001000 -0.123241 0.000950	0.340286
0.587469 -0.001000 -0.123759 0.000925	0.341289
0.598231 -0.001000 -0.124339 0.000958	0.344512
0.600674 -0.001000 -0.124468 0.000953	0.345417
0.612142 -0.001000 -0.125063 0.000892	0.348976
0.624018 -0.001000 -0.125654 0.000932	0.351379
0.627584 -0.001000 -0.125831 0.000918	0.352533
0.630414 -0.001000 -0.125966 0.000914	0.353218
0.642067 -0.001000 -0.126514 0.000872	0.357231
0.647602 -0.001000 -0.126765 0.000827	0.359461
0.657840 -0.001000 -0.127219 0.000858	0.363695
0.662897 -0.001000 -0.127438 0.000840	0.366010
0.673864 -0.001000 -0.127898 0.000875	0.370766
0.676151 -0.001000 -0.127992 0.000887	0.371812
0.687992 -0.001000 -0.128464 0.000859	0.377250
0.689985 -0.001000 -0.128541 0.000838	0.378054
0.703343 -0.001000 -0.129043 0.000715	0.383517
0.703882 -0.001000 -0.129063 0.000714	0.383730
0.706714 -0.001000 -0.129164 0.000705	0.385421
0.716860 -0.001000 -0.129524 0.000652	0.391448
0.720157 -0.001000 -0.129635 0.000643	0.393861
0.726346 -0.001000 -0.129843 0.000605	0.398583
0.731815 -0.001000 -0.130021 0.000550	0.404152
0.732010 -0.001000 -0.130028 0.000547	0.404339
0.732172 -0.001000 -0.130033 0.000546	0.404504
0.735233 -0.001000 -0.130130 0.000487	0.407328
0.736255 -0.001000 -0.130163 0.000492	0.408833
0.736957 -0.001000 -0.130185 0.000482	0.409942
0.737632 -0.001000 -0.130206 0.000490	0.411192
0.737689 -0.001000 -0.130208 0.000485	0.411319
0.737719 -0.001000 -0.130209 0.000484	0.411427
0.738192 -0.001000 -0.130223 0.000460	0.414230
0.738196 -0.001000 -0.130223 0.000460	0.414245
0.738199 -0.001000 -0.130223 0.000460	0.414325
0.738364 -0.001000 -0.130229 0.000450	0.414878
0.738491 -0.001000 -0.130233 0.000454	0.416811
0.738503 -0.001000 -0.130233 0.000455	0.416057
0.738517 -0.001000 -0.130233 0.000382	0.412177
0.738606 -0.001000 -0.130236 0.000107	0.395196
0.738551 -0.001000 -0.130218 0.000093	0.404541
0.738530 -0.001000 -0.130211 0.000107	0.411564
0.738511 -0.001000 -0.130205 0.000102	0.411194
0.738420 -0.001000 -0.130175 0.000089	0.410141
0.738367 -0.001000 -0.130158 0.000084	0.409978
0.738267 -0.001000 -0.130125 0.000074	0.409812
0.738187 -0.001000 -0.130098 0.000063	0.410354
0.738004 -0.001000 -0.130038 0.000048	0.410593
0.737874 -0.001000 -0.129995 0.000039	0.410758
0.737488 -0.001000 -0.129868 0.000018	0.410702
0.737248 -0.001000 -0.129789 0.000004	0.410603
0.736905 -0.001000 -0.129677 -0.000011	0.410490
0.736095 -0.001000 -0.129410 -0.000037	0.410428
0.734605 -0.001000 -0.128921 -0.000082	0.409578
0.734533 -0.001000 -0.128897 -0.000084	0.409546
0.734507 -0.001000 -0.128888 -0.000084	0.409517
0.732085 -0.001000 -0.128094 -0.000123	0.407649
0.731696 -0.001000 -0.127966 -0.000128	0.407412
0.729848 -0.001000 -0.127361 -0.000136	0.406067
0.727972 -0.001000 -0.126746 -0.000145	0.404673
0.725475 -0.001000 -0.125930 -0.000155	0.402933
0.722405 -0.001000 -0.124927 -0.000166	0.400772
0.721648 -0.001000 -0.124680 -0.000167	0.400241
0.720991 -0.001000 -0.124466 -0.000170	0.399790
0.718167 -0.001000 -0.123546 -0.000175	0.397865
0.716273 -0.001000 -0.122930 -0.000180	0.396551
0.715533 -0.001000 -0.122690 -0.000180	0.396035
0.714621 -0.001000 -0.122393 -0.000180	0.395407
0.712760 -0.001000 -0.121789 -0.000178	0.394144
0.712010 -0.001000 -0.121546 -0.000181	0.393564
0.709767 -0.001000 -0.120819 -0.000191	0.392022
0.708955 -0.001000 -0.120556 -0.000192	0.391496
0.706306 -0.001000 -0.119698 -0.000199	0.389644
0.702113 -0.001000 -0.118344 -0.000208	0.386693
0.700613 -0.001000 -0.117861 -0.000212	0.385619
0.692213 -0.001000 -0.115160 -0.000222	0.379348
0.690453 -0.001000 -0.114595 -0.000223	0.378044
0.680240 -0.001000 -0.111332 -0.000236	0.370285
0.678059 -0.001000 -0.110636 -0.000239	0.368576
0.672959 -0.001000 -0.109019 -0.000240	0.364605
0.666781 -0.001000 -0.107058 -0.000245	0.359762
0.658670 -0.001000 -0.104499 -0.000257	0.353400
0.657440 -0.001000 -0.104112 -0.000257	0.352442
0.651753 -0.001000 -0.102326 -0.000249	0.347996
0.643461 -0.001000 -0.099731 -0.000263	0.341365
0.641322 -0.001000 -0.099061 -0.000264	0.339655
0.637014 -0.001000 -0.097723 -0.000257	0.336150
0.630703 -0.001000 -0.095762 -0.000246	0.331036
0.626131 -0.001000 -0.094351 -0.000249	0.327172
0.620304 -0.001000 -0.092553 -0.000248	0.322286
0.617158 -0.001000 -0.091586 -0.000243	0.319556
0.611160 -0.001000 -0.089747 -0.000233	0.314409
0.606603 -0.001000 -0.088353 -0.000231	0.310401
0.598649 -0.001000 -0.085931 -0.000235	0.303714
0.596738 -0.001000 -0.085349 -0.000234	0.302079
0.591509 -0.001000 -0.083766 -0.000229	0.297475
0.586679 -0.001000 -0.082303 -0.000220	0.293243
0.585176 -0.001000 -0.081851 -0.000218	0.291939
0.575898 -0.001000 -0.079057 -0.000203	0.283912
0.566107 -0.001000 -0.076128 -0.000170	0.275289