TITLE     = "Surface mesh and solution"
VARIABLES = "x"
"y"
"z"
"cfx"
"Cp"
DATASETAUXDATA alpha_deg="  0.0000000E+00"
DATASETAUXDATA beta_deg="  0.0000000E+00"
DATASETAUXDATA bref="  0.7500000"
DATASETAUXDATA cref="   1.000000"
DATASETAUXDATA itranflg="           0"
DATASETAUXDATA ivisc="           2"
DATASETAUXDATA mach="  0.2000000"
DATASETAUXDATA reue_mil="   4.600000"
DATASETAUXDATA sref="  0.7500000"
DATASETAUXDATA tinf_r="   521.0000"
DATASETAUXDATA xmc="  0.0000000E+00"
DATASETAUXDATA ymc="  0.0000000E+00"
DATASETAUXDATA zmc="  0.0000000E+00"
ZONE T="USM3D-ME, HeldenMesh_F, Slice: Y=-0.001"
 STRANDID=0, SOLUTIONTIME=0
 Nodes=841, Elements=817, ZONETYPE=FELineSeg
 DATAPACKING=POINT
 DT=(DOUBLE DOUBLE DOUBLE DOUBLE DOUBLE )
 3.622410234E-02 -1.000000000E-03 -6.339093034E-02 2.099870061E-03 1.960521093E-01
 3.667071640E-02 -1.000000000E-03 -6.343162884E-02 2.098697312E-03 1.959575573E-01
 3.043198870E-02 -1.000000000E-03 -6.285481891E-02 2.115501349E-03 1.973147502E-01
 3.001116946E-02 -1.000000000E-03 -6.281520187E-02 2.116500298E-03 1.974076788E-01
 4.258760008E-02 -1.000000000E-03 -6.396157178E-02 2.080277110E-03 1.947514113E-01
 4.307510372E-02 -1.000000000E-03 -6.400454041E-02 2.079131666E-03 1.946556053E-01
 4.903397786E-02 -1.000000000E-03 -6.452055108E-02 2.062431623E-03 1.935128652E-01
 4.954538711E-02 -1.000000000E-03 -6.456411887E-02 2.061179302E-03 1.934187487E-01
 5.568460225E-02 -1.000000000E-03 -6.507765687E-02 2.040670504E-03 1.924142906E-01
 5.622580523E-02 -1.000000000E-03 -6.512217579E-02 2.039072695E-03 1.923330209E-01
 6.239787153E-02 -1.000000000E-03 -6.562045960E-02 2.022883474E-03 1.914090391E-01
 6.295013331E-02 -1.000000000E-03 -6.566428760E-02 2.021588387E-03 1.913350053E-01
 6.919767667E-02 -1.000000000E-03 -6.615076049E-02 2.003916091E-03 1.904779535E-01
 6.976799519E-02 -1.000000000E-03 -6.619440221E-02 2.002508114E-03 1.904030351E-01
 7.600731903E-02 -1.000000000E-03 -6.666271504E-02 1.987272554E-03 1.895780879E-01
 7.657963078E-02 -1.000000000E-03 -6.670491640E-02 1.985882181E-03 1.895098766E-01
 8.291728532E-02 -1.000000000E-03 -6.716317691E-02 1.967148987E-03 1.888125362E-01
 8.351120743E-02 -1.000000000E-03 -6.720535013E-02 1.965513622E-03 1.887580849E-01
 8.992433932E-02 -1.000000000E-03 -6.765167812E-02 1.948941086E-03 1.881576191E-01
 9.052638760E-02 -1.000000000E-03 -6.769280208E-02 1.947394838E-03 1.881080407E-01
 9.714732184E-02 -1.000000000E-03 -6.813575017E-02 1.928399368E-03 1.876039015E-01
 9.777678162E-02 -1.000000000E-03 -6.817705409E-02 1.926699129E-03 1.875575465E-01
 1.045155971E-01 -1.000000000E-03 -6.860976425E-02 1.912218746E-03 1.870500264E-01
 1.051468114E-01 -1.000000000E-03 -6.864949107E-02 1.910623024E-03 1.870084596E-01
 1.120375535E-01 -1.000000000E-03 -6.907359717E-02 1.890137864E-03 1.866297030E-01
 1.126886494E-01 -1.000000000E-03 -6.911284696E-02 1.888349886E-03 1.866031000E-01
 1.196568198E-01 -1.000000000E-03 -6.952339037E-02 1.870820474E-03 1.863460956E-01
 1.203076192E-01 -1.000000000E-03 -6.956091766E-02 1.869213422E-03 1.863269499E-01
 1.274405855E-01 -1.000000000E-03 -6.996264204E-02 1.849883187E-03 1.861671391E-01
 1.281044741E-01 -1.000000000E-03 -6.999921263E-02 1.848046697E-03 1.861581156E-01
 1.352858428E-01 -1.000000000E-03 -7.038525021E-02 1.831117878E-03 1.860870825E-01
 1.359467536E-01 -1.000000000E-03 -7.041997729E-02 1.829453524E-03 1.860852331E-01
 1.432477923E-01 -1.000000000E-03 -7.079405886E-02 1.809823914E-03 1.861268206E-01
 1.439399974E-01 -1.000000000E-03 -7.082869788E-02 1.808049466E-03 1.861333768E-01
 1.513161882E-01 -1.000000000E-03 -7.118832240E-02 1.790872029E-03 1.862261670E-01
 1.520387684E-01 -1.000000000E-03 -7.122269236E-02 1.789223301E-03 1.862377868E-01
 1.596367068E-01 -1.000000000E-03 -7.157439552E-02 1.768397873E-03 1.864681017E-01
 1.604000302E-01 -1.000000000E-03 -7.160882687E-02 1.766351488E-03 1.864968649E-01
 1.681437255E-01 -1.000000000E-03 -7.194822992E-02 1.750419835E-03 1.868032978E-01
 1.689009072E-01 -1.000000000E-03 -7.198053283E-02 1.748552470E-03 1.868398717E-01
 1.768627757E-01 -1.000000000E-03 -7.231007874E-02 1.728506121E-03 1.872698789E-01
 -2.490486417E-01 -1.000000000E-03 2.178931660E-02 5.089044197E-04 5.761323208E-01
 -2.482991606E-01 -1.000000000E-03 2.539608063E-02 2.146928596E-03 2.925978558E-01
 -2.475632519E-01 -1.000000000E-03 2.724066051E-02 3.062740769E-03 1.488014436E-01
 -2.489380341E-01 -1.000000000E-03 1.811159596E-02 -5.125444061E-04 8.120398162E-01
 -2.467721740E-01 -1.000000000E-03 2.874574486E-02 3.683721204E-03 3.674616617E-02
 -2.485331107E-01 -1.000000000E-03 1.615997558E-02 -6.475324185E-04 8.956531947E-01
 -2.480227930E-01 -1.000000000E-03 1.456355661E-02 -5.882484696E-04 9.443431907E-01
 -2.471916135E-01 -1.000000000E-03 1.262831100E-02 -3.225294369E-04 9.769871191E-01
 -2.457923688E-01 -1.000000000E-03 1.016021385E-02 1.383088384E-04 9.865200763E-01
 -2.445711914E-01 -1.000000000E-03 8.415519947E-03 5.136405562E-04 9.735092882E-01
 -2.434662993E-01 -1.000000000E-03 7.031549371E-03 7.692576963E-04 9.564321590E-01
 -2.411146262E-01 -1.000000000E-03 4.475515174E-03 1.222470391E-03 9.121337851E-01
 -2.490985030E-01 -1.000000000E-03 2.096158280E-02 1.806212061E-04 6.228429947E-01
 -2.491006741E-01 -1.000000000E-03 2.010178097E-02 -8.520649224E-05 6.920995453E-01
 -2.490554337E-01 -1.000000000E-03 2.167937288E-02 4.530151486E-04 5.807475645E-01
 -2.490363178E-01 -1.000000000E-03 2.189806714E-02 5.397223424E-04 5.706449409E-01
 -2.491005785E-01 -1.000000000E-03 1.997170306E-02 -1.257045361E-04 7.005732078E-01
 -2.490929683E-01 -1.000000000E-03 1.984407333E-02 -1.570548336E-04 7.086424722E-01
 -2.490406607E-01 -1.000000000E-03 1.897855928E-02 -3.716243238E-04 7.680881168E-01
 -2.489582668E-01 -1.000000000E-03 1.828352265E-02 -4.920314694E-04 8.038832325E-01
 -2.489043125E-01 -1.000000000E-03 1.791874040E-02 -5.394147944E-04 8.204519772E-01
 -2.487653503E-01 -1.000000000E-03 1.713230630E-02 -6.110963604E-04 8.556451275E-01
 -2.486034712E-01 -1.000000000E-03 1.645024399E-02 -6.409598065E-04 8.832905041E-01
 -2.484390104E-01 -1.000000000E-03 1.584184852E-02 -6.520217791E-04 9.043891489E-01
 -2.482954560E-01 -1.000000000E-03 1.535318963E-02 -6.491811244E-04 9.197064587E-01
 -2.481536017E-01 -1.000000000E-03 1.494351582E-02 -6.221323371E-04 9.319907402E-01
 -2.478527504E-01 -1.000000000E-03 1.413490710E-02 -5.401959292E-04 9.519127740E-01
 -2.476394774E-01 -1.000000000E-03 1.360290533E-02 -4.673529511E-04 9.618286696E-01
 -2.474253461E-01 -1.000000000E-03 1.313591367E-02 -3.973434385E-04 9.683863527E-01
 -2.468417430E-01 -1.000000000E-03 1.195341149E-02 -2.052715450E-04 9.814248126E-01
 -2.467234649E-01 -1.000000000E-03 1.172417433E-02 -1.660646259E-04 9.833802309E-01
 -2.466492891E-01 -1.000000000E-03 1.159363330E-02 -1.423769667E-04 9.840178942E-01
 -2.462678194E-01 -1.000000000E-03 1.092639705E-02 -1.983852890E-05 9.862559285E-01
 -2.458908136E-01 -1.000000000E-03 1.031905544E-02 1.042323752E-04 9.861754835E-01
 -2.456606581E-01 -1.000000000E-03 9.963784923E-03 1.803036739E-04 9.849994780E-01
 -2.452054671E-01 -1.000000000E-03 9.287141638E-03 3.256734379E-04 9.805816954E-01
 -2.448180961E-01 -1.000000000E-03 8.753683536E-03 4.421852249E-04 9.760322508E-01
 -2.442454248E-01 -1.000000000E-03 7.996621376E-03 5.945686742E-04 9.679072655E-01
 -2.440178984E-01 -1.000000000E-03 7.703460383E-03 6.483315930E-04 9.643639472E-01
 -2.438487094E-01 -1.000000000E-03 7.497683565E-03 6.839507440E-04 9.617477804E-01
 -2.428510964E-01 -1.000000000E-03 6.321683953E-03 8.815136082E-04 9.455679483E-01
 -2.427213215E-01 -1.000000000E-03 6.172440060E-03 9.057854997E-04 9.433030116E-01
 -2.426333581E-01 -1.000000000E-03 6.076817645E-03 9.237599045E-04 9.418151665E-01
 -2.419178380E-01 -1.000000000E-03 5.299958224E-03 1.055284220E-03 9.281320454E-01
 -2.413688238E-01 -1.000000000E-03 4.735474882E-03 1.167425469E-03 9.170062712E-01
 -2.407746942E-01 -1.000000000E-03 4.142976615E-03 1.264206045E-03 9.052676547E-01
 -2.404245147E-01 -1.000000000E-03 3.799791257E-03 1.306879026E-03 8.983847299E-01
 -2.489539228E-01 -1.000000000E-03 2.261361172E-02 8.298619694E-04 5.282210206E-01
 -2.488083420E-01 -1.000000000E-03 2.345156011E-02 1.187825759E-03 4.445985368E-01
 -2.487840909E-01 -1.000000000E-03 2.358849427E-02 1.247556683E-03 4.329982722E-01
 -2.487517849E-01 -1.000000000E-03 2.372390309E-02 1.314893357E-03 4.230254306E-01
 -2.485524425E-01 -1.000000000E-03 2.455621581E-02 1.720215394E-03 3.520057413E-01
 -2.483404280E-01 -1.000000000E-03 2.525890128E-02 2.054209474E-03 3.003298845E-01
 -2.482450967E-01 -1.000000000E-03 2.554495011E-02 2.181707848E-03 2.796832645E-01
 -2.479597381E-01 -1.000000000E-03 2.632605483E-02 2.522140936E-03 2.171367940E-01
 -2.476599294E-01 -1.000000000E-03 2.701947287E-02 2.887668002E-03 1.649369506E-01
 -2.474448954E-01 -1.000000000E-03 2.747841864E-02 3.114351116E-03 1.302957426E-01
 -2.471847985E-01 -1.000000000E-03 2.800290703E-02 3.349455397E-03 9.026863778E-02
 -2.469335616E-01 -1.000000000E-03 2.845432462E-02 3.507663586E-03 5.637336513E-02
 -2.465794556E-01 -1.000000000E-03 2.905929418E-02 3.696962118E-03 1.405937903E-02
 -2.462375005E-01 -1.000000000E-03 2.961007898E-02 3.866813654E-03 -2.093509141E-02
 -4.793603006E-02 -1.000000000E-03 -5.378225394E-02 2.353638014E-03 2.261641314E-01
 -4.317223294E-02 -1.000000000E-03 -5.444443559E-02 2.336828244E-03 2.236526803E-01
 -4.289954144E-02 -1.000000000E-03 -5.448190192E-02 2.335962221E-03 2.235123958E-01
 -3.805835208E-02 -1.000000000E-03 -5.513733508E-02 2.324883249E-03 2.210805858E-01
 -3.781071032E-02 -1.000000000E-03 -5.517046340E-02 2.324087172E-03 2.209611042E-01
 -3.278263574E-02 -1.000000000E-03 -5.583315796E-02 2.307078846E-03 2.185953187E-01
 -3.253050654E-02 -1.000000000E-03 -5.586598108E-02 2.306435777E-03 2.184805247E-01
 -2.742777418E-02 -1.000000000E-03 -5.652028251E-02 2.287704320E-03 2.161820980E-01
 -2.712969638E-02 -1.000000000E-03 -5.655802391E-02 2.286907400E-03 2.160528953E-01
 -2.206062339E-02 -1.000000000E-03 -5.719027402E-02 2.272495872E-03 2.138915851E-01
 -2.171888866E-02 -1.000000000E-03 -5.723234455E-02 2.271644597E-03 2.137533475E-01
 -1.661748502E-02 -1.000000000E-03 -5.785114075E-02 2.254005876E-03 2.116558367E-01
 -1.623775271E-02 -1.000000000E-03 -5.789659472E-02 2.253012848E-03 2.115093550E-01
 -1.113739524E-02 -1.000000000E-03 -5.849809417E-02 2.236378168E-03 2.095756605E-01
 -1.074787239E-02 -1.000000000E-03 -5.854341767E-02 2.235388933E-03 2.094328104E-01
 -5.529836370E-03 -1.000000000E-03 -5.914150223E-02 2.217578913E-03 2.076465377E-01
 -5.129520813E-03 -1.000000000E-03 -5.918676453E-02 2.216604136E-03 2.075090398E-01
 1.461284969E-04 -1.000000000E-03 -5.977418276E-02 2.203266922E-03 2.057019949E-01
 5.373647205E-04 -1.000000000E-03 -5.981714869E-02 2.202149916E-03 2.055747526E-01
 5.952469861E-03 -1.000000000E-03 -6.040261908E-02 2.184423605E-03 2.038506342E-01
 6.340416393E-03 -1.000000000E-03 -6.044397898E-02 2.183431191E-03 2.037345768E-01
 1.181307366E-02 -1.000000000E-03 -6.101820521E-02 2.169143678E-03 2.021399493E-01
 1.218905411E-02 -1.000000000E-03 -6.105709586E-02 2.168007238E-03 2.020328967E-01
 1.780696599E-02 -1.000000000E-03 -6.162884321E-02 2.151744287E-03 2.004769183E-01
 1.819292187E-02 -1.000000000E-03 -6.166755361E-02 2.150781495E-03 2.003765109E-01
 2.385139871E-02 -1.000000000E-03 -6.222578598E-02 2.136426185E-03 1.988624932E-01
 2.424112026E-02 -1.000000000E-03 -6.226366640E-02 2.135304057E-03 1.987673860E-01
 3.001116946E-02 -1.000000000E-03 -6.281520187E-02 2.116500298E-03 1.974076788E-01
 6.960538886E-01 -1.000000000E-03 -5.356727500E-02 1.408918635E-04 3.831296196E-01
 6.958994205E-01 -1.000000000E-03 -5.353233211E-02 1.418796261E-04 3.829768599E-01
 6.979612261E-01 -1.000000000E-03 -5.399908793E-02 1.296130264E-04 3.850375185E-01
 6.981151677E-01 -1.000000000E-03 -5.403396694E-02 1.286791707E-04 3.852009462E-01
 6.940234669E-01 -1.000000000E-03 -5.310830950E-02 1.515868358E-04 3.811519754E-01
 6.939033579E-01 -1.000000000E-03 -5.308118154E-02 1.522218672E-04 3.810369266E-01
 6.919264738E-01 -1.000000000E-03 -5.263506490E-02 1.608838474E-04 3.790589673E-01
 6.918418139E-01 -1.000000000E-03 -5.261597493E-02 1.613021945E-04 3.789730845E-01
 7.001384886E-01 -1.000000000E-03 -5.449280826E-02 1.189359161E-04 3.872951265E-01
 7.002930164E-01 -1.000000000E-03 -5.452787890E-02 1.180693287E-04 3.874565701E-01
 7.025260828E-01 -1.000000000E-03 -5.503520059E-02 1.092786898E-04 3.898306482E-01
 7.023656952E-01 -1.000000000E-03 -5.499873650E-02 1.100814016E-04 3.896607095E-01
 7.045668707E-01 -1.000000000E-03 -5.549963249E-02 1.013916810E-04 3.920068560E-01
 7.047335494E-01 -1.000000000E-03 -5.553759273E-02 1.004082675E-04 3.921867184E-01
 7.068081042E-01 -1.000000000E-03 -5.601054614E-02 9.300506028E-05 3.943860239E-01
 7.069365040E-01 -1.000000000E-03 -5.603983915E-02 9.249943055E-05 3.945293856E-01
 7.091307259E-01 -1.000000000E-03 -5.654097734E-02 8.707310544E-05 3.968047623E-01
 7.091848405E-01 -1.000000000E-03 -5.655334453E-02 8.683899974E-05 3.968587988E-01
 7.114831718E-01 -1.000000000E-03 -5.707922847E-02 7.383627406E-05 3.993300095E-01
 7.115029459E-01 -1.000000000E-03 -5.708375660E-02 7.368766127E-05 3.993507566E-01
 6.896433363E-01 -1.000000000E-03 -5.212069713E-02 1.709534820E-04 3.767070445E-01
 6.895904337E-01 -1.000000000E-03 -5.210878960E-02 1.712720554E-04 3.766532124E-01
 6.871775820E-01 -1.000000000E-03 -5.156622082E-02 1.817323026E-04 3.742134935E-01
 6.871423318E-01 -1.000000000E-03 -5.155830195E-02 1.819183146E-04 3.741798515E-01
 6.843971145E-01 -1.000000000E-03 -5.094226078E-02 1.907696201E-04 3.714443137E-01
 6.843018082E-01 -1.000000000E-03 -5.092089497E-02 1.911329471E-04 3.713438514E-01
 6.814102224E-01 -1.000000000E-03 -5.027348495E-02 2.006664046E-04 3.684624783E-01
 6.812309321E-01 -1.000000000E-03 -5.023338297E-02 2.013936911E-04 3.682858156E-01
 6.782458143E-01 -1.000000000E-03 -4.956665054E-02 2.107672212E-04 3.653417637E-01
 6.779943756E-01 -1.000000000E-03 -4.951055270E-02 2.120865455E-04 3.650985104E-01
 6.748899067E-01 -1.000000000E-03 -4.881892736E-02 2.237997131E-04 3.620714975E-01
 6.745667770E-01 -1.000000000E-03 -4.874703153E-02 2.255730853E-04 3.617620373E-01
 6.712428625E-01 -1.000000000E-03 -4.800852888E-02 2.379727388E-04 3.586321520E-01
 6.708617212E-01 -1.000000000E-03 -4.792397176E-02 2.398629315E-04 3.582783932E-01
 6.673448030E-01 -1.000000000E-03 -4.714486263E-02 2.514152641E-04 3.550123076E-01
 6.668831717E-01 -1.000000000E-03 -4.704276689E-02 2.534441968E-04 3.545898446E-01
 6.628902129E-01 -1.000000000E-03 -4.616104804E-02 2.684675116E-04 3.509344787E-01
 6.623464871E-01 -1.000000000E-03 -4.604120931E-02 2.707925709E-04 3.504250777E-01
 6.578493285E-01 -1.000000000E-03 -4.505177050E-02 2.860059423E-04 3.463373057E-01
 6.572423432E-01 -1.000000000E-03 -4.491850259E-02 2.884815496E-04 3.458004857E-01
 6.521629322E-01 -1.000000000E-03 -4.380553805E-02 3.062431295E-04 3.413465741E-01
 6.514708598E-01 -1.000000000E-03 -4.365423870E-02 3.086756265E-04 3.407408047E-01
 6.460405833E-01 -1.000000000E-03 -4.246972047E-02 3.222496434E-04 3.359546663E-01
 6.452482704E-01 -1.000000000E-03 -4.229734561E-02 3.249119431E-04 3.352523589E-01
 6.386450761E-01 -1.000000000E-03 -4.086432504E-02 3.560567722E-04 3.294880180E-01
 6.376496915E-01 -1.000000000E-03 -4.064901067E-02 3.586718231E-04 3.286368800E-01
 6.293647920E-01 -1.000000000E-03 -3.886233688E-02 3.784394284E-04 3.217335349E-01
 6.280279170E-01 -1.000000000E-03 -3.857523631E-02 3.845182816E-04 3.206342663E-01
 6.060336039E-01 -1.000000000E-03 -3.388956559E-02 4.295943439E-04 3.029576883E-01
 6.163507809E-01 -1.000000000E-03 -3.607813577E-02 4.076965614E-04 3.112571525E-01
 6.178150562E-01 -1.000000000E-03 -3.638995003E-02 4.034615043E-04 3.124300736E-01
 -1.398320702E-01 -1.000000000E-03 6.013941891E-02 3.970465935E-03 -3.409455984E-01
 -1.396220987E-01 -1.000000000E-03 6.015435486E-02 3.967866794E-03 -3.407160416E-01
 -1.428862641E-01 -1.000000000E-03 5.991495237E-02 4.015147824E-03 -3.444827954E-01
 -1.365390738E-01 -1.000000000E-03 6.036504647E-02 3.920778758E-03 -3.371184292E-01
 -1.363289743E-01 -1.000000000E-03 6.037893259E-02 3.917827435E-03 -3.368553699E-01
 -1.332369714E-01 -1.000000000E-03 6.057485865E-02 3.877502203E-03 -3.332674881E-01
 -1.330417277E-01 -1.000000000E-03 6.058680238E-02 3.875166261E-03 -3.330580769E-01
 -1.298574757E-01 -1.000000000E-03 6.077310084E-02 3.832708641E-03 -3.294174386E-01
 -1.296693719E-01 -1.000000000E-03 6.078369644E-02 3.829876123E-03 -3.291921781E-01
 -1.264799610E-01 -1.000000000E-03 6.095510314E-02 3.791989527E-03 -3.256216882E-01
 -1.262993166E-01 -1.000000000E-03 6.096441344E-02 3.789996075E-03 -3.254208146E-01
 -1.230226635E-01 -1.000000000E-03 6.112520457E-02 3.751551135E-03 -3.219901324E-01
 -1.228318267E-01 -1.000000000E-03 6.113415799E-02 3.749583626E-03 -3.217795322E-01
 -1.195934277E-01 -1.000000000E-03 6.127829072E-02 3.709321683E-03 -3.184432437E-01
 -1.193804205E-01 -1.000000000E-03 6.128732792E-02 3.707166289E-03 -3.181980885E-01
 -1.161258442E-01 -1.000000000E-03 6.141781458E-02 3.669206363E-03 -3.145692582E-01
 -1.159126760E-01 -1.000000000E-03 6.142593209E-02 3.667236468E-03 -3.143265528E-01
 -1.126089868E-01 -1.000000000E-03 6.154416470E-02 3.631115575E-03 -3.106519154E-01
 -1.123949325E-01 -1.000000000E-03 6.155141410E-02 3.628723049E-03 -3.104279528E-01
 -1.090876316E-01 -1.000000000E-03 6.165588798E-02 3.593657773E-03 -3.068409552E-01
 -8.261113305E-02 -1.000000000E-03 6.206130728E-02 3.316221518E-03 -2.792263890E-01
 -7.889426303E-02 -1.000000000E-03 6.206200049E-02 3.278648996E-03 -2.753529147E-01
 -7.866060337E-02 -1.000000000E-03 6.206162870E-02 3.276709349E-03 -2.751142232E-01
 -7.487743644E-02 -1.000000000E-03 6.204842738E-02 3.240310932E-03 -2.712156642E-01
 -7.458000646E-02 -1.000000000E-03 6.204684990E-02 3.238017161E-03 -2.709152514E-01
 -7.080367393E-02 -1.000000000E-03 6.201988120E-02 3.196704589E-03 -2.672019049E-01
 -2.391699069E-01 -1.000000000E-03 3.678536923E-02 5.711191287E-03 -3.389912583E-01
 -2.372985151E-01 -1.000000000E-03 3.809597560E-02 5.891648776E-03 -3.648778210E-01
 -2.356693832E-01 -1.000000000E-03 3.913293288E-02 5.895650700E-03 -3.873066247E-01
 -2.335016083E-01 -1.000000000E-03 4.039460523E-02 6.034079095E-03 -3.994386595E-01
 -2.305978250E-01 -1.000000000E-03 4.191541396E-02 6.025348922E-03 -4.202437570E-01
 -2.284599152E-01 -1.000000000E-03 4.293222659E-02 5.976697854E-03 -4.259375289E-01
 -2.284166068E-01 -1.000000000E-03 4.295201861E-02 5.976100938E-03 -4.260754225E-01
 -2.261316849E-01 -1.000000000E-03 4.395850964E-02 5.979412566E-03 -4.316889402E-01
 -2.225790980E-01 -1.000000000E-03 4.538920464E-02 5.964537321E-03 -4.374059397E-01
 -2.197351133E-01 -1.000000000E-03 4.643350808E-02 5.935959910E-03 -4.372419207E-01
 -2.173819370E-01 -1.000000000E-03 4.723971093E-02 5.806382395E-03 -4.365752418E-01
 -2.458921313E-01 -1.000000000E-03 3.011062235E-02 4.094543689E-03 -5.243514073E-02
 -2.456430021E-01 -1.000000000E-03 3.047118045E-02 4.377889503E-03 -7.420487246E-02
 -2.453667577E-01 -1.000000000E-03 3.083586943E-02 4.397528981E-03 -9.073297815E-02
 -2.462375005E-01 -1.000000000E-03 2.961007898E-02 3.866813654E-03 -2.093509141E-02
 -2.451140722E-01 -1.000000000E-03 3.116947605E-02 4.507193782E-03 -1.074467847E-01
 -2.446879375E-01 -1.000000000E-03 3.168562299E-02 4.608158401E-03 -1.428282965E-01
 -2.444749213E-01 -1.000000000E-03 3.194475118E-02 4.713115904E-03 -1.607220438E-01
 -2.441238684E-01 -1.000000000E-03 3.233744822E-02 4.789745205E-03 -1.821730312E-01
 -2.443986048E-01 -1.000000000E-03 3.203321753E-02 4.746178525E-03 -1.650738810E-01
 -2.437172602E-01 -1.000000000E-03 3.278927743E-02 4.946181396E-03 -2.037484849E-01
 -2.435295578E-01 -1.000000000E-03 3.298320119E-02 4.991050680E-03 -2.117478291E-01
 -2.431069896E-01 -1.000000000E-03 3.341946086E-02 5.206326565E-03 -2.241899656E-01
 -2.425116125E-01 -1.000000000E-03 3.399529014E-02 5.211357868E-03 -2.445627988E-01
 -2.423628665E-01 -1.000000000E-03 3.413898139E-02 5.236487974E-03 -2.491121378E-01
 -2.422497071E-01 -1.000000000E-03 3.424147778E-02 5.261065049E-03 -2.526718024E-01
 -2.416437465E-01 -1.000000000E-03 3.479113060E-02 5.403795974E-03 -2.690836377E-01
 -2.409088180E-01 -1.000000000E-03 3.541834266E-02 5.448042520E-03 -2.976861576E-01
 -2.408087789E-01 -1.000000000E-03 3.550362516E-02 5.453605401E-03 -3.009559856E-01
 -2.407189830E-01 -1.000000000E-03 3.557586400E-02 5.470052930E-03 -3.027675115E-01
 -2.399440322E-01 -1.000000000E-03 3.619752731E-02 5.612650572E-03 -3.241179621E-01
 -2.393895942E-01 -1.000000000E-03 3.661864834E-02 5.661531390E-03 -3.360549147E-01
 -2.389120310E-01 -1.000000000E-03 3.697105453E-02 5.653094367E-03 -3.432822115E-01
 -2.382560793E-01 -1.000000000E-03 3.744342256E-02 5.619975860E-03 -3.514504548E-01
 -2.376749425E-01 -1.000000000E-03 3.784045731E-02 5.744520459E-03 -3.600386678E-01
 -2.368696494E-01 -1.000000000E-03 3.837444131E-02 5.852740122E-03 -3.723900857E-01
 -2.364964064E-01 -1.000000000E-03 3.861739361E-02 5.854667170E-03 -3.778535022E-01
 -2.361633355E-01 -1.000000000E-03 3.882492627E-02 5.852115061E-03 -3.822184402E-01
 -2.351195993E-01 -1.000000000E-03 3.946104717E-02 5.809381216E-03 -3.899199486E-01
 -2.346167954E-01 -1.000000000E-03 3.976072614E-02 5.793704959E-03 -3.913201350E-01
 -2.341371429E-01 -1.000000000E-03 4.003393799E-02 5.866794183E-03 -3.949976739E-01
 -2.326871901E-01 -1.000000000E-03 4.083705301E-02 6.027854463E-03 -4.055664943E-01
 -2.324677033E-01 -1.000000000E-03 4.095661810E-02 6.032511732E-03 -4.070512656E-01
 -2.323381788E-01 -1.000000000E-03 4.102449629E-02 6.036899837E-03 -4.077855872E-01
 -2.315148112E-01 -1.000000000E-03 4.145394483E-02 6.034358713E-03 -4.137807777E-01
 -2.308359624E-01 -1.000000000E-03 4.179572091E-02 6.026674343E-03 -4.189537132E-01
 -2.303113337E-01 -1.000000000E-03 4.205462334E-02 6.008139761E-03 -4.205382110E-01
 -2.296431216E-01 -1.000000000E-03 4.237920023E-02 5.983934544E-03 -4.206737959E-01
 -2.285733523E-01 -1.000000000E-03 4.287909541E-02 5.974876588E-03 -4.254209755E-01
 -2.282499724E-01 -1.000000000E-03 4.302654178E-02 5.976683793E-03 -4.264518944E-01
 -2.271854223E-01 -1.000000000E-03 4.350355082E-02 5.990357569E-03 -4.283437394E-01
 -2.267769996E-01 -1.000000000E-03 4.368004158E-02 5.987778262E-03 -4.300842704E-01
 -2.252103037E-01 -1.000000000E-03 4.434236704E-02 5.953458061E-03 -4.314624821E-01
 -2.249023415E-01 -1.000000000E-03 4.447079196E-02 5.942370622E-03 -4.310460416E-01
 -2.247092552E-01 -1.000000000E-03 4.454854665E-02 5.954007232E-03 -4.313854963E-01
 -2.237376391E-01 -1.000000000E-03 4.493908224E-02 5.961704252E-03 -4.344256431E-01
 -2.228230717E-01 -1.000000000E-03 4.529440465E-02 5.964931904E-03 -4.371935033E-01
 -2.211831560E-01 -1.000000000E-03 4.591229375E-02 5.820839727E-03 -4.335434785E-01
 -2.222524750E-01 -1.000000000E-03 4.551173052E-02 5.924914254E-03 -4.367899964E-01
 -2.203372541E-01 -1.000000000E-03 4.621754330E-02 5.881288268E-03 -4.357213300E-01
 -2.185390600E-01 -1.000000000E-03 4.684959278E-02 5.828863303E-03 -4.386644159E-01
 -2.159949710E-01 -1.000000000E-03 4.769264354E-02 5.778538710E-03 -4.342501003E-01
 -2.190101015E-01 -1.000000000E-03 4.668554024E-02 5.873431616E-03 -4.384579044E-01
 -2.182112347E-01 -1.000000000E-03 4.696026293E-02 5.825313010E-03 -4.385331720E-01
 -2.161794950E-01 -1.000000000E-03 4.763232712E-02 5.785510592E-03 -4.346938246E-01
 -2.158877782E-01 -1.000000000E-03 4.772663533E-02 5.783129376E-03 -4.342381754E-01
 -2.147025992E-01 -1.000000000E-03 4.810123482E-02 5.753514505E-03 -4.353754975E-01
 -9.055351419E-02 -1.000000000E-03 -4.705352208E-02 2.496042334E-03 2.552740157E-01
 -9.086683508E-02 -1.000000000E-03 -4.699804710E-02 2.497036272E-03 2.555408177E-01
 -8.636492520E-02 -1.000000000E-03 -4.778539428E-02 2.480910218E-03 2.517714070E-01
 -8.605207823E-02 -1.000000000E-03 -4.783941862E-02 2.480013415E-03 2.515198095E-01
 -8.179878723E-02 -1.000000000E-03 -4.856429174E-02 2.466438266E-03 2.481416878E-01
 -8.146993286E-02 -1.000000000E-03 -4.861968278E-02 2.465468350E-03 2.478880899E-01
 -7.721180756E-02 -1.000000000E-03 -4.932750822E-02 2.451464882E-03 2.446025903E-01
 -7.689301642E-02 -1.000000000E-03 -4.937988855E-02 2.450526578E-03 2.443682052E-01
 -7.255076614E-02 -1.000000000E-03 -5.008395532E-02 2.435132973E-03 2.412799880E-01
 -7.224166215E-02 -1.000000000E-03 -5.013350643E-02 2.434259401E-03 2.410649950E-01
 -6.780284812E-02 -1.000000000E-03 -5.083532506E-02 2.417668673E-03 2.380949581E-01
 -6.749628233E-02 -1.000000000E-03 -5.088324902E-02 2.416742480E-03 2.378938795E-01
 -6.300027403E-02 -1.000000000E-03 -5.157626243E-02 2.405138982E-03 2.350100209E-01
 -6.270089621E-02 -1.000000000E-03 -5.162187015E-02 2.404297869E-03 2.348213640E-01
 -5.808673295E-02 -1.000000000E-03 -5.231503777E-02 2.387100816E-03 2.319783485E-01
 -5.777728266E-02 -1.000000000E-03 -5.236097121E-02 2.386110252E-03 2.317953456E-01
 -5.318199731E-02 -1.000000000E-03 -5.303369053E-02 2.371576068E-03 2.290965907E-01
 -5.288955087E-02 -1.000000000E-03 -5.307599500E-02 2.370767527E-03 2.289323128E-01
 -4.821860296E-02 -1.000000000E-03 -5.374241032E-02 2.354413181E-03 2.263163466E-01
 -4.793603006E-02 -1.000000000E-03 -5.378225394E-02 2.353638014E-03 2.261641314E-01
 2.816507053E-01 -1.000000000E-03 2.652651303E-02 1.224415926E-03 5.880562831E-02
 2.829346605E-01 -1.000000000E-03 2.632285052E-02 1.231216157E-03 6.006447077E-02
 2.145736282E-01 -1.000000000E-03 3.663290507E-02 1.483060659E-03 1.264380468E-03
 2.138116048E-01 -1.000000000E-03 3.674146144E-02 1.486583796E-03 5.948088156E-04
 2.226054498E-01 -1.000000000E-03 3.547942844E-02 1.452699134E-03 8.295635860E-03
 2.234000995E-01 -1.000000000E-03 3.536444048E-02 1.449228621E-03 8.991276391E-03
 2.316151748E-01 -1.000000000E-03 3.416625294E-02 1.416310717E-03 1.614929757E-02
 2.324355324E-01 -1.000000000E-03 3.404572208E-02 1.412638494E-03 1.686399359E-02
 2.407073248E-01 -1.000000000E-03 3.282094661E-02 1.380433260E-03 2.406362181E-02
 2.415179034E-01 -1.000000000E-03 3.270007833E-02 1.377216070E-03 2.475487311E-02
 2.498619079E-01 -1.000000000E-03 3.144652532E-02 1.354489155E-03 3.174373654E-02
 2.506503913E-01 -1.000000000E-03 3.132727396E-02 1.351023438E-03 3.242067348E-02
 2.588253947E-01 -1.000000000E-03 3.008202012E-02 1.337400579E-03 3.940495031E-02
 2.595811097E-01 -1.000000000E-03 2.996614885E-02 1.333450672E-03 4.005312503E-02
 2.687649798E-01 -1.000000000E-03 2.854746251E-02 1.329957544E-03 4.813941778E-02
 2.758203873E-01 -1.000000000E-03 2.744139125E-02 1.264672224E-03 5.406399685E-02
 2.700570364E-01 -1.000000000E-03 2.834666296E-02 1.329079236E-03 4.918753501E-02
 2.911186664E-01 -1.000000000E-03 2.501657034E-02 1.193565679E-03 6.681776906E-02
 2.940155984E-01 -1.000000000E-03 2.455390703E-02 1.192814841E-03 6.921526219E-02
 2.935856198E-01 -1.000000000E-03 2.462309547E-02 1.194857927E-03 6.886637922E-02
 3.036168743E-01 -1.000000000E-03 2.300042150E-02 1.170237909E-03 7.675804001E-02
 3.047062443E-01 -1.000000000E-03 2.282301692E-02 1.165317525E-03 7.763955909E-02
 3.140018522E-01 -1.000000000E-03 2.129950697E-02 1.131781758E-03 8.515085813E-02
 3.151503138E-01 -1.000000000E-03 2.111016954E-02 1.128221800E-03 8.607776039E-02
 3.247309457E-01 -1.000000000E-03 1.952025592E-02 1.106183665E-03 9.381105574E-02
 3.258058667E-01 -1.000000000E-03 1.934084843E-02 1.102235491E-03 9.467097890E-02
 3.359489890E-01 -1.000000000E-03 1.763659379E-02 1.080098000E-03 1.028154058E-01
 3.368904191E-01 -1.000000000E-03 1.747752288E-02 1.077220864E-03 1.035635914E-01
 3.474692637E-01 -1.000000000E-03 1.567800574E-02 1.060549778E-03 1.119408889E-01
 3.482990208E-01 -1.000000000E-03 1.553606958E-02 1.057740452E-03 1.125883360E-01
 3.593433547E-01 -1.000000000E-03 1.363425390E-02 1.025124695E-03 1.211482847E-01
 3.601359490E-01 -1.000000000E-03 1.349700376E-02 1.022712175E-03 1.217592578E-01
 3.713259471E-01 -1.000000000E-03 1.154671617E-02 9.944735377E-04 1.303458251E-01
 3.721263678E-01 -1.000000000E-03 1.140643605E-02 9.918403010E-04 1.309571892E-01
 3.835739278E-01 -1.000000000E-03 9.387504308E-03 9.595133208E-04 1.397230947E-01
 3.843963907E-01 -1.000000000E-03 9.241656811E-03 9.572326941E-04 1.403485393E-01
 3.961184117E-01 -1.000000000E-03 7.149964257E-03 9.391924475E-04 1.492022206E-01
 3.969076525E-01 -1.000000000E-03 7.008368888E-03 9.367217773E-04 1.497973661E-01
 4.091672111E-01 -1.000000000E-03 4.795081148E-03 9.058135697E-04 1.589713003E-01
 4.099369232E-01 -1.000000000E-03 4.655368224E-03 9.036868955E-04 1.595440607E-01
 4.224273806E-01 -1.000000000E-03 2.374015411E-03 8.767590424E-04 1.687889149E-01
 6.841871673E-01 -1.000000000E-03 -6.861160648E-02 5.268259436E-04 3.619777438E-01
 6.778912643E-01 -1.000000000E-03 -6.889909760E-02 5.479169551E-04 3.570472259E-01
 6.728606379E-01 -1.000000000E-03 -6.912739628E-02 5.839467638E-04 3.531438733E-01
 6.713415430E-01 -1.000000000E-03 -6.919406033E-02 5.866658397E-04 3.519680569E-01
 3.648902562E-01 -1.000000000E-03 -7.585240721E-02 1.299449322E-03 2.194078022E-01
 3.663753229E-01 -1.000000000E-03 -7.585349625E-02 1.296352700E-03 2.198052794E-01
 3.529170986E-01 -1.000000000E-03 -7.583046296E-02 1.324921918E-03 2.162352946E-01
 3.543622435E-01 -1.000000000E-03 -7.583437938E-02 1.321769148E-03 2.166093076E-01
 3.422861936E-01 -1.000000000E-03 -7.579088145E-02 1.347246811E-03 2.135812982E-01
 3.409666883E-01 -1.000000000E-03 -7.578461858E-02 1.349911557E-03 2.132611370E-01
 3.771027675E-01 -1.000000000E-03 -7.585066579E-02 1.277541226E-03 2.226862513E-01
 3.785271800E-01 -1.000000000E-03 -7.584893072E-02 1.274173318E-03 2.230826931E-01
 3.896199100E-01 -1.000000000E-03 -7.582416898E-02 1.260960306E-03 2.262301242E-01
 3.909542603E-01 -1.000000000E-03 -7.581992655E-02 1.257980585E-03 2.266116572E-01
 4.025686756E-01 -1.000000000E-03 -7.577099518E-02 1.237292819E-03 2.300309789E-01
 4.038311267E-01 -1.000000000E-03 -7.576448278E-02 1.234105233E-03 2.304018473E-01