VARIABLES= iterations rms_res_mf1 rms_res_mf2 rms_res_mf3 rms_res_mf4 rms_res_mf5 rms_res_trb1 CL CD CDv CM
ZONE T = "USM3D-ME, Pointwise_3.0"
1  -999  -999  -999  -999  4.372609E-08  1.361187E-01  -1.977269E-02  5.359446E-01  5.359446E-01  9.179798E-05
2  -999  -999  -999  -999  3.509221E-08  3.294840E-02  6.076600E-01  8.355111E-01  5.330464E-01  -1.607709E-01
3  -999  -999  -999  -999  2.492961E-08  8.534762E-03  1.333174E+00  1.197634E+00  5.274247E-01  -3.430461E-01
4  -999  -999  -999  -999  1.760727E-08  2.246557E-03  1.784143E+00  1.424806E+00  5.166449E-01  -4.553811E-01
5  -999  -999  -999  -999  1.313131E-08  5.057211E-04  1.812608E+00  1.419023E+00  4.963583E-01  -4.631975E-01
6  -999  -999  -999  -999  9.616013E-09  1.374887E-04  1.730383E+00  1.338779E+00  4.600288E-01  -4.421525E-01
7  -999  -999  -999  -999  7.072013E-09  4.051711E-05  1.705323E+00  1.263434E+00  4.011859E-01  -4.350995E-01
8  -999  -999  -999  -999  5.351053E-09  1.132846E-05  1.699640E+00  1.169061E+00  3.202142E-01  -4.327333E-01
9  -999  -999  -999  -999  4.175922E-09  3.023326E-06  1.618754E+00  9.624203E-01  2.314994E-01  -4.113242E-01
10  -999  -999  -999  -999  3.145108E-09  7.832982E-07  1.312467E+00  6.475624E-01  1.564557E-01  -3.009027E-01
11  -999  -999  -999  -999  2.423437E-09  2.009718E-07  1.234757E+00  4.093636E-01  1.041372E-01  -2.289740E-01
12  -999  -999  -999  -999  3.661477E-09  5.881858E-08  8.482224E-01  2.236330E-01  7.069503E-02  -8.397838E-02
13  -999  -999  -999  -999  4.926877E-09  2.427652E-08  3.092805E-01  8.317058E-02  4.913786E-02  2.571679E-02
14  -999  -999  -999  -999  2.835999E-09  1.370135E-08  3.016106E-01  6.755417E-02  4.515754E-02  2.672217E-02
15  -999  -999  -999  -999  1.944301E-09  1.346932E-08  2.589695E-01  3.757721E-02  4.013328E-02  2.819870E-02
16  -999  -999  -999  -999  1.821744E-09  1.332323E-08  2.638290E-01  3.493772E-02  3.945513E-02  2.653599E-02
17  -999  -999  -999  -999  1.663530E-09  1.321845E-08  2.697219E-01  3.168792E-02  3.856531E-02  2.447545E-02
18  -999  -999  -999  -999  9.118837E-10  1.472697E-08  2.973932E-01  1.643823E-02  3.391666E-02  1.441432E-02
19  -999  -999  -999  -999  9.114187E-10  1.472957E-08  2.973784E-01  1.645218E-02  3.389969E-02  1.440285E-02
20  -999  -999  -999  -999  5.888928E-10  1.364186E-08  2.999316E-01  1.314301E-02  3.293015E-02  1.299992E-02
21  -999  -999  -999  -999  4.559137E-10  1.438652E-08  3.025638E-01  1.218716E-02  3.137775E-02  1.156536E-02
22  -999  -999  -999  -999  5.805464E-10  1.782955E-08  2.976591E-01  2.125310E-02  2.913114E-02  9.949062E-03
23  -999  -999  -999  -999  1.537421E-09  1.946103E-08  3.010850E-01  3.503651E-02  2.713331E-02  7.038058E-03
24  -999  -999  -999  -999  2.397425E-09  2.365792E-08  3.073246E-01  4.180204E-02  2.540543E-02  5.153401E-03
25  -999  -999  -999  -999  1.684661E-09  2.301317E-08  3.120888E-01  4.722110E-02  2.470867E-02  3.909896E-03
26  -999  -999  -999  -999  1.997338E-09  2.749864E-08  3.192338E-01  5.213402E-02  2.383537E-02  2.428675E-03
27  -999  -999  -999  -999  2.005734E-09  3.452015E-08  3.137397E-01  4.791136E-02  2.309494E-02  3.446153E-03
28  -999  -999  -999  -999  1.801993E-09  4.002332E-08  3.116905E-01  4.610985E-02  2.273949E-02  3.763397E-03
29  -999  -999  -999  -999  1.125367E-09  4.155464E-08  3.075869E-01  4.767768E-02  2.279372E-02  4.615052E-03
30  -999  -999  -999  -999  9.030097E-10  4.614287E-08  3.035386E-01  4.438844E-02  2.261415E-02  4.958720E-03
31  -999  -999  -999  -999  1.200979E-09  5.165669E-08  3.005373E-01  4.345260E-02  2.198376E-02  5.091550E-03
32  -999  -999  -999  -999  1.423518E-09  5.862005E-08  2.994058E-01  4.326019E-02  2.147567E-02  5.121960E-03
33  -999  -999  -999  -999  1.542093E-09  5.917448E-08  2.969778E-01  4.311353E-02  2.107777E-02  5.289299E-03
34  -999  -999  -999  -999  1.831340E-09  6.787897E-08  2.963526E-01  4.351680E-02  2.042346E-02  5.250390E-03
35  -999  -999  -999  -999  1.983724E-09  7.816991E-08  2.959873E-01  4.354090E-02  1.982872E-02  5.310774E-03
36  -999  -999  -999  -999  1.488145E-09  7.573054E-08  2.964672E-01  4.255911E-02  1.947970E-02  5.152601E-03
37  -999  -999  -999  -999  1.391584E-09  8.134295E-08  2.947858E-01  4.263972E-02  1.887483E-02  5.461364E-03
38  -999  -999  -999  -999  1.298272E-09  8.578643E-08  2.944975E-01  4.186137E-02  1.819123E-02  5.577930E-03
39  -999  -999  -999  -999  1.138418E-09  8.433444E-08  2.914854E-01  4.041272E-02  1.760481E-02  6.019938E-03
40  -999  -999  -999  -999  7.132652E-10  7.422110E-08  2.891127E-01  3.769978E-02  1.727436E-02  6.251529E-03
41  -999  -999  -999  -999  4.360106E-10  7.300548E-08  2.851386E-01  3.694917E-02  1.667297E-02  6.588507E-03
42  -999  -999  -999  -999  4.826252E-10  7.489755E-08  2.816746E-01  3.611716E-02  1.608340E-02  6.832007E-03
43  -999  -999  -999  -999  5.274410E-10  6.641138E-08  2.797365E-01  3.599852E-02  1.581258E-02  6.805265E-03
44  -999  -999  -999  -999  6.889102E-10  6.711349E-08  2.755126E-01  3.521700E-02  1.531710E-02  7.006976E-03
45  -999  -999  -999  -999  7.526652E-10  7.011813E-08  2.714286E-01  3.526793E-02  1.475186E-02  7.062783E-03
46  -999  -999  -999  -999  5.105009E-10  6.315939E-08  2.703375E-01  3.351281E-02  1.458964E-02  6.956494E-03
47  -999  -999  -999  -999  5.247731E-10  6.264787E-08  2.668649E-01  3.412236E-02  1.422411E-02  6.973941E-03
48  -999  -999  -999  -999  5.339634E-10  6.636261E-08  2.649019E-01  3.416908E-02  1.375565E-02  6.588057E-03
49  -999  -999  -999  -999  5.466601E-10  7.286821E-08  2.639434E-01  3.412156E-02  1.344329E-02  6.539905E-03
50  -999  -999  -999  -999  4.710249E-10  6.763727E-08  2.622556E-01  3.575886E-02  1.326210E-02  6.750197E-03
51  -999  -999  -999  -999  5.470950E-10  7.396023E-08  2.607408E-01  3.440457E-02  1.289376E-02  6.780384E-03
52  -999  -999  -999  -999  5.777658E-10  8.380447E-08  2.600437E-01  3.422914E-02  1.264911E-02  6.788175E-03
53  -999  -999  -999  -999  4.432654E-10  7.602858E-08  2.590957E-01  3.436321E-02  1.254289E-02  6.884912E-03
54  -999  -999  -999  -999  4.471644E-10  7.954513E-08  2.582586E-01  3.405170E-02  1.236931E-02  6.932838E-03
55  -999  -999  -999  -999  4.604808E-10  9.096359E-08  2.570553E-01  3.392923E-02  1.217675E-02  7.055909E-03
56  -999  -999  -999  -999  3.126428E-10  8.083400E-08  2.562610E-01  3.316257E-02  1.211227E-02  7.166276E-03
57  -999  -999  -999  -999  2.578974E-10  8.130548E-08  2.548206E-01  3.314217E-02  1.198302E-02  7.192609E-03
58  -999  -999  -999  -999  2.436868E-10  9.028535E-08  2.535572E-01  3.305486E-02  1.183967E-02  7.275709E-03
59  -999  -999  -999  -999  2.479874E-10  9.746750E-08  2.525659E-01  3.273819E-02  1.173832E-02  7.312493E-03
60  -999  -999  -999  -999  1.969384E-10  8.279101E-08  2.514850E-01  3.258168E-02  1.166954E-02  7.332821E-03
61  -999  -999  -999  -999  2.348354E-10  8.415707E-08  2.501013E-01  3.220184E-02  1.151614E-02  7.341450E-03
62  -999  -999  -999  -999  2.514702E-10  9.054490E-08  2.494413E-01  3.247267E-02  1.139678E-02  7.290305E-03
63  -999  -999  -999  -999  1.733175E-10  7.272074E-08  2.482688E-01  3.211035E-02  1.134894E-02  7.308129E-03
64  -999  -999  -999  -999  1.917765E-10  6.838681E-08  2.473391E-01  3.204463E-02  1.124565E-02  7.258654E-03
65  -999  -999  -999  -999  2.143587E-10  7.396681E-08  2.465352E-01  3.201682E-02  1.112881E-02  7.110175E-03
66  -999  -999  -999  -999  1.446013E-10  6.018845E-08  2.457694E-01  3.238324E-02  1.109502E-02  7.216493E-03
67  -999  -999  -999  -999  1.870308E-10  5.453680E-08  2.450786E-01  3.205429E-02  1.102057E-02  7.147996E-03
68  -999  -999  -999  -999  2.119401E-10  5.954414E-08  2.446016E-01  3.205676E-02  1.093012E-02  7.083785E-03
69  -999  -999  -999  -999  1.477829E-10  5.050610E-08  2.440999E-01  3.215604E-02  1.090843E-02  7.164782E-03
70  -999  -999  -999  -999  1.479098E-10  4.717299E-08  2.438993E-01  3.208075E-02  1.086095E-02  7.083544E-03
71  -999  -999  -999  -999  1.713082E-10  5.080972E-08  2.430160E-01  3.197902E-02  1.079568E-02  7.134802E-03
72  -999  -999  -999  -999  1.156373E-10  4.501212E-08  2.429945E-01  3.200692E-02  1.078100E-02  7.108903E-03
73  -999  -999  -999  -999  9.882068E-11  4.290725E-08  2.426163E-01  3.176099E-02  1.074928E-02  7.156103E-03
74  -999  -999  -999  -999  1.187098E-10  4.555750E-08  2.417534E-01  3.164088E-02  1.070027E-02  7.156006E-03
75  -999  -999  -999  -999  7.899715E-11  4.120773E-08  2.417266E-01  3.175217E-02  1.069128E-02  7.122966E-03
76  -999  -999  -999  -999  7.272469E-11  3.954561E-08  2.414220E-01  3.163748E-02  1.067000E-02  7.151450E-03
77  -999  -999  -999  -999  9.140521E-11  4.183592E-08  2.406255E-01  3.145846E-02  1.063282E-02  7.156490E-03
78  -999  -999  -999  -999  1.037629E-10  4.761072E-08  2.403390E-01  3.142110E-02  1.060364E-02  7.147017E-03
79  -999  -999  -999  -999  6.899107E-11  3.955525E-08  2.400166E-01  3.151797E-02  1.058894E-02  7.147197E-03
80  -999  -999  -999  -999  7.486367E-11  3.855500E-08  2.398886E-01  3.147352E-02  1.055337E-02  7.094360E-03
81  -999  -999  -999  -999  9.539120E-11  4.330382E-08  2.390135E-01  3.134604E-02  1.051212E-02  7.117823E-03
82  -999  -999  -999  -999  5.974522E-11  3.567974E-08  2.389688E-01  3.143687E-02  1.050081E-02  7.072976E-03
83  -999  -999  -999  -999  6.232464E-11  3.245146E-08  2.387356E-01  3.137735E-02  1.047636E-02  7.073780E-03
84  -999  -999  -999  -999  8.762651E-11  3.463882E-08  2.380512E-01  3.132202E-02  1.043785E-02  7.068692E-03
85  -999  -999  -999  -999  5.672867E-11  2.951619E-08  2.380059E-01  3.141965E-02  1.042966E-02  7.051157E-03
86  -999  -999  -999  -999  5.506232E-11  2.680989E-08  2.379352E-01  3.143350E-02  1.041094E-02  7.027868E-03
87  -999  -999  -999  -999  7.991918E-11  2.725038E-08  2.373695E-01  3.130788E-02  1.038145E-02  7.040353E-03
88  -999  -999  -999  -999  5.340300E-11  2.423977E-08  2.373503E-01  3.137128E-02  1.037500E-02  7.022955E-03
89  -999  -999  -999  -999  4.700792E-11  2.288817E-08  2.373361E-01  3.141410E-02  1.036173E-02  7.006650E-03
90  -999  -999  -999  -999  6.023196E-11  2.329306E-08  2.369089E-01  3.123140E-02  1.033840E-02  7.035220E-03
91  -999  -999  -999  -999  6.819735E-11  2.655840E-08  2.367907E-01  3.123226E-02  1.032246E-02  7.024565E-03
92  -999  -999  -999  -999  4.755847E-11  2.245446E-08  2.366231E-01  3.121982E-02  1.031383E-02  7.027862E-03
93  -999  -999  -999  -999  4.840925E-11  2.226085E-08  2.365203E-01  3.124427E-02  1.029370E-02  7.001155E-03
94  -999  -999  -999  -999  5.599608E-11  2.569084E-08  2.362162E-01  3.118386E-02  1.027229E-02  7.007938E-03
95  -999  -999  -999  -999  3.662461E-11  2.183104E-08  2.361539E-01  3.119496E-02  1.026563E-02  6.998827E-03
96  -999  -999  -999  -999  3.486376E-11  2.099046E-08  2.360302E-01  3.117854E-02  1.025132E-02  7.003063E-03
97  -999  -999  -999  -999  4.335679E-11  2.401177E-08  2.356468E-01  3.109244E-02  1.023095E-02  7.014706E-03
98  -999  -999  -999  -999  2.724351E-11  2.109011E-08  2.355763E-01  3.105918E-02  1.022617E-02  7.006358E-03
99  -999  -999  -999  -999  2.597481E-11  2.022830E-08  2.354953E-01  3.114799E-02  1.021538E-02  6.995315E-03
100  -999  -999  -999  -999  3.728469E-11  2.227826E-08  2.351329E-01  3.099504E-02  1.019723E-02  7.010752E-03
101  -999  -999  -999  -999  2.358162E-11  1.987335E-08  2.350492E-01  3.098938E-02  1.019390E-02  7.007272E-03
102  -999  -999  -999  -999  2.224728E-11  1.897787E-08  2.349704E-01  3.107732E-02  1.018591E-02  6.992006E-03
103  -999  -999  -999  -999  3.368314E-11  1.957642E-08  2.348052E-01  3.100156E-02  1.017083E-02  6.982346E-03
104  -999  -999  -999  -999  4.281749E-11  2.298729E-08  2.346459E-01  3.101392E-02  1.015527E-02  6.965808E-03
105  -999  -999  -999  -999  2.804390E-11  1.912572E-08  2.345431E-01  3.104155E-02  1.014969E-02  6.970290E-03
106  -999  -999  -999  -999  2.955108E-11  1.783604E-08  2.344830E-01  3.107349E-02  1.013679E-02  6.953999E-03
107  -999  -999  -999  -999  3.858594E-11  2.012684E-08  2.342008E-01  3.099806E-02  1.011764E-02  6.961195E-03
108  -999  -999  -999  -999  2.505353E-11  1.724811E-08  2.341548E-01  3.100145E-02  1.011394E-02  6.950559E-03
109  -999  -999  -999  -999  2.222715E-11  1.619236E-08  2.341512E-01  3.105644E-02  1.010457E-02  6.938855E-03
110  -999  -999  -999  -999  3.032262E-11  1.688311E-08  2.338830E-01  3.094526E-02  1.008994E-02  6.954536E-03
111  -999  -999  -999  -999  1.989930E-11  1.518251E-08  2.338519E-01  3.095746E-02  1.008650E-02  6.947925E-03
112  -999  -999  -999  -999  1.895402E-11  1.438769E-08  2.338240E-01  3.099193E-02  1.008004E-02  6.939397E-03
113  -999  -999  -999  -999  2.522735E-11  1.521108E-08  2.336809E-01  3.092598E-02  1.006789E-02  6.943368E-03
114  -999  -999  -999  -999  2.988285E-11  1.746141E-08  2.336005E-01  3.092910E-02  1.005879E-02  6.937656E-03
115  -999  -999  -999  -999  2.020814E-11  1.477962E-08  2.335338E-01  3.092348E-02  1.005432E-02  6.939262E-03
116  -999  -999  -999  -999  2.111961E-11  1.466785E-08  2.334529E-01  3.093781E-02  1.004369E-02  6.930910E-03
117  -999  -999  -999  -999  2.519878E-11  1.657999E-08  2.333159E-01  3.090595E-02  1.003208E-02  6.934072E-03
118  -999  -999  -999  -999  1.623302E-11  1.435271E-08  2.332782E-01  3.089030E-02  1.002850E-02  6.930045E-03
119  -999  -999  -999  -999  1.543889E-11  1.394854E-08  2.332223E-01  3.092101E-02  1.002080E-02  6.927299E-03
120  -999  -999  -999  -999  1.957850E-11  1.536515E-08  2.330560E-01  3.085680E-02  1.000975E-02  6.935300E-03
121  -999  -999  -999  -999  1.221178E-11  1.374957E-08  2.330150E-01  3.084604E-02  1.000722E-02  6.933781E-03
122  -999  -999  -999  -999  1.159643E-11  1.319171E-08  2.329524E-01  3.087059E-02  1.000138E-02  6.929668E-03
123  -999  -999  -999  -999  1.712481E-11  1.404757E-08  2.328399E-01  3.082344E-02  9.991697E-03  6.927172E-03
124  -999  -999  -999  -999  1.067583E-11  1.296670E-08  2.328001E-01  3.082184E-02  9.989615E-03  6.927116E-03
125  -999  -999  -999  -999  1.032129E-11  1.238574E-08  2.327353E-01  3.084061E-02  9.985582E-03  6.926472E-03
126  -999  -999  -999  -999  1.514529E-11  1.295131E-08  2.326978E-01  3.082586E-02  9.977440E-03  6.912822E-03
127  -999  -999  -999  -999  2.055706E-11  1.507367E-08  2.325839E-01  3.082545E-02  9.968390E-03  6.911759E-03
128  -999  -999  -999  -999  1.335244E-11  1.295096E-08  2.325599E-01  3.083521E-02  9.965592E-03  6.909795E-03
129  -999  -999  -999  -999  1.329154E-11  1.237089E-08  2.325036E-01  3.084472E-02  9.958636E-03  6.909204E-03
130  -999  -999  -999  -999  1.772138E-11  1.344485E-08  2.323876E-01  3.080785E-02  9.948906E-03  6.910672E-03
131  -999  -999  -999  -999  1.116399E-11  1.197843E-08  2.323600E-01  3.080152E-02  9.946436E-03  6.908110E-03
132  -999  -999  -999  -999  1.031939E-11  1.131503E-08  2.323329E-01  3.083323E-02  9.941711E-03  6.903052E-03
133  -999  -999  -999  -999  1.367869E-11  1.267271E-08  2.322382E-01  3.078107E-02  9.932770E-03  6.906486E-03
134  -999  -999  -999  -999  1.621266E-11  1.417119E-08  2.321920E-01  3.078094E-02  9.926465E-03  6.902431E-03
135  -999  -999  -999  -999  1.377967E-11  1.077368E-08  2.322413E-01  3.078714E-02  9.935150E-03  6.905257E-03
136  -999  -999  -999  -999  1.294167E-11  1.103414E-08  2.321680E-01  3.078992E-02  9.929860E-03  6.905614E-03
137  -999  -999  -999  -999  1.658303E-11  1.323875E-08  2.321087E-01  3.077577E-02  9.922263E-03  6.901530E-03
138  -999  -999  -999  -999  1.124489E-11  1.133672E-08  2.320817E-01  3.078473E-02  9.919870E-03  6.899802E-03
139  -999  -999  -999  -999  1.093597E-11  1.085027E-08  2.320538E-01  3.079145E-02  9.913665E-03  6.895705E-03
140  -999  -999  -999  -999  1.362853E-11  1.205707E-08  2.319705E-01  3.076996E-02  9.905347E-03  6.898422E-03
141  -999  -999  -999  -999  8.509636E-12  1.073281E-08  2.319535E-01  3.076583E-02  9.903133E-03  6.896265E-03
142  -999  -999  -999  -999  7.830249E-12  1.010468E-08  2.319268E-01  3.078190E-02  9.899276E-03  6.893941E-03
143  -999  -999  -999  -999  9.857465E-12  1.111763E-08  2.318463E-01  3.073339E-02  9.891363E-03  6.898107E-03
144  -999  -999  -999  -999  6.186089E-12  1.009350E-08  2.318187E-01  3.072703E-02  9.890379E-03  6.899406E-03
145  -999  -999  -999  -999  5.673196E-12  9.724400E-09  2.317599E-01  3.072928E-02  9.886970E-03  6.901339E-03
146  -999  -999  -999  -999  8.107941E-12  9.981433E-09  2.317401E-01  3.072721E-02  9.881725E-03  6.892675E-03
147  -999  -999  -999  -999  1.143322E-11  1.206688E-08  2.316754E-01  3.072425E-02  9.875118E-03  6.891395E-03
148  -999  -999  -999  -999  7.723980E-12  1.027945E-08  2.316566E-01  3.072865E-02  9.873316E-03  6.890367E-03
149  -999  -999  -999  -999  8.266931E-12  1.004451E-08  2.316218E-01  3.073678E-02  9.867962E-03  6.888650E-03
150  -999  -999  -999  -999  1.048368E-11  1.078484E-08  2.315621E-01  3.072079E-02  9.861868E-03  6.889735E-03
151  -999  -999  -999  -999  6.561401E-12  9.582467E-09  2.315477E-01  3.071517E-02  9.859945E-03  6.887743E-03
152  -999  -999  -999  -999  6.215954E-12  9.041894E-09  2.315219E-01  3.072820E-02  9.856364E-03  6.885835E-03
153  -999  -999  -999  -999  8.035315E-12  9.912664E-09  2.314596E-01  3.069753E-02  9.849860E-03  6.887897E-03
154  -999  -999  -999  -999  5.028888E-12  9.028385E-09  2.314367E-01  3.069224E-02  9.848743E-03  6.888452E-03
155  -999  -999  -999  -999  4.723342E-12  8.618293E-09  2.314020E-01  3.070312E-02  9.846094E-03  6.888776E-03
156  -999  -999  -999  -999  6.963380E-12  8.851105E-09  2.313777E-01  3.068897E-02  9.841363E-03  6.884294E-03
157  -999  -999  -999  -999  9.253511E-12  1.047619E-08  2.313366E-01  3.068855E-02  9.836316E-03  6.882518E-03
158  -999  -999  -999  -999  6.244798E-12  8.933856E-09  2.313196E-01  3.069136E-02  9.834530E-03  6.882039E-03
159  -999  -999  -999  -999  6.523012E-12  8.407989E-09  2.312947E-01  3.069676E-02  9.830211E-03  6.880187E-03
160  -999  -999  -999  -999  8.416254E-12  9.663755E-09  2.312439E-01  3.068324E-02  9.824086E-03  6.881418E-03
161  -999  -999  -999  -999  5.278653E-12  8.488705E-09  2.312323E-01  3.067883E-02  9.822575E-03  6.880088E-03
162  -999  -999  -999  -999  4.833989E-12  7.904601E-09  2.312176E-01  3.069200E-02  9.819821E-03  6.878463E-03
163  -999  -999  -999  -999  6.220766E-12  9.812698E-09  2.311640E-01  3.065881E-02  9.814108E-03  6.881765E-03
164  -999  -999  -999  -999  6.937154E-12  1.036887E-08  2.311415E-01  3.065894E-02  9.810614E-03  6.879661E-03
165  -999  -999  -999  -999  5.763784E-12  7.736807E-09  2.311700E-01  3.066269E-02  9.816448E-03  6.881351E-03
166  -999  -999  -999  -999  5.486241E-12  7.664523E-09  2.311344E-01  3.066310E-02  9.813815E-03  6.881375E-03
167  -999  -999  -999  -999  3.508496E-12  7.262703E-09  2.311290E-01  3.066440E-02  9.812960E-03  6.880339E-03
168  -999  -999  -999  -999  3.216872E-12  7.069163E-09  2.311201E-01  3.066063E-02  9.811227E-03  6.878761E-03
169  -999  -999  -999  -999  4.393295E-12  7.357892E-09  2.310944E-01  3.065351E-02  9.808115E-03  6.877705E-03
170  -999  -999  -999  -999  6.439268E-12  8.685711E-09  2.310574E-01  3.065610E-02  9.804053E-03  6.876727E-03
171  -999  -999  -999  -999  4.163382E-12  7.653423E-09  2.310517E-01  3.065811E-02  9.802961E-03  6.875607E-03
172  -999  -999  -999  -999  4.234513E-12  7.511332E-09  2.310311E-01  3.065904E-02  9.800114E-03  6.876528E-03
173  -999  -999  -999  -999  5.214835E-12  7.926784E-09  2.309982E-01  3.064488E-02  9.796209E-03  6.875973E-03
174  -999  -999  -999  -999  3.307977E-12  7.206914E-09  2.309901E-01  3.064569E-02  9.795259E-03  6.876048E-03
175  -999  -999  -999  -999  3.142301E-12  6.926986E-09  2.309653E-01  3.064549E-02  9.793092E-03  6.876564E-03
176  -999  -999  -999  -999  4.126792E-12  7.520660E-09  2.309527E-01  3.063982E-02  9.789742E-03  6.873620E-03
177  -999  -999  -999  -999  5.053768E-12  8.514880E-09  2.309230E-01  3.063571E-02  9.786485E-03  6.873864E-03
178  -999  -999  -999  -999  4.080379E-12  6.381972E-09  2.309446E-01  3.063965E-02  9.790651E-03  6.874622E-03
179  -999  -999  -999  -999  3.825191E-12  6.657264E-09  2.309204E-01  3.063763E-02  9.788236E-03  6.875040E-03
180  -999  -999  -999  -999  5.551603E-12  8.344672E-09  2.308908E-01  3.063201E-02  9.784260E-03  6.873581E-03
181  -999  -999  -999  -999  3.880381E-12  7.095617E-09  2.308829E-01  3.063515E-02  9.783642E-03  6.873074E-03
182  -999  -999  -999  -999  3.747441E-12  6.796394E-09  2.308679E-01  3.063787E-02  9.780810E-03  6.872578E-03
183  -999  -999  -999  -999  4.606983E-12  7.151271E-09  2.308471E-01  3.063062E-02  9.777443E-03  6.871449E-03
184  -999  -999  -999  -999  2.933291E-12  6.542671E-09  2.308408E-01  3.063060E-02  9.776346E-03  6.871670E-03
185  -999  -999  -999  -999  2.742483E-12  6.129803E-09  2.308246E-01  3.063174E-02  9.774755E-03  6.871903E-03
186  -999  -999  -999  -999  3.586246E-12  6.986413E-09  2.308138E-01  3.062356E-02  9.771065E-03  6.869783E-03
187  -999  -999  -999  -999  4.044040E-12  7.687747E-09  2.307879E-01  3.061836E-02  9.768602E-03  6.870516E-03
188  -999  -999  -999  -999  3.272698E-12  5.581693E-09  2.308098E-01  3.062296E-02  9.772578E-03  6.870750E-03
189  -999  -999  -999  -999  2.987518E-12  5.846547E-09  2.307852E-01  3.061739E-02  9.770613E-03  6.872523E-03
190  -999  -999  -999  -999  4.080728E-12  7.224175E-09  2.307629E-01  3.061376E-02  9.767506E-03  6.871356E-03
191  -999  -999  -999  -999  2.872217E-12  6.243807E-09  2.307553E-01  3.061536E-02  9.766858E-03  6.871030E-03
192  -999  -999  -999  -999  3.238590E-12  6.563256E-09  2.307407E-01  3.061730E-02  9.764303E-03  6.870424E-03
193  -999  -999  -999  -999  3.586706E-12  6.360687E-09  2.307288E-01  3.061337E-02  9.762027E-03  6.869195E-03
194  -999  -999  -999  -999  2.354530E-12  5.778389E-09  2.307243E-01  3.061427E-02  9.761131E-03  6.869100E-03
195  -999  -999  -999  -999  2.528023E-12  5.772351E-09  2.307108E-01  3.061341E-02  9.759321E-03  6.869265E-03
196  -999  -999  -999  -999  2.818260E-12  5.850394E-09  2.307025E-01  3.060994E-02  9.757168E-03  6.868272E-03
197  -999  -999  -999  -999  1.793754E-12  5.454990E-09  2.306972E-01  3.060882E-02  9.756478E-03  6.868324E-03
198  -999  -999  -999  -999  1.664493E-12  5.208161E-09  2.306826E-01  3.060365E-02  9.755268E-03  6.869839E-03
199  -999  -999  -999  -999  2.359216E-12  5.832702E-09  2.306628E-01  3.059916E-02  9.752771E-03  6.869128E-03
200  -999  -999  -999  -999  2.903380E-12  6.342759E-09  2.306443E-01  3.059628E-02  9.750676E-03  6.869034E-03
201  -999  -999  -999  -999  1.968661E-12  5.542719E-09  2.306395E-01  3.059696E-02  9.749815E-03  6.868316E-03
202  -999  -999  -999  -999  2.320086E-12  5.547567E-09  2.306271E-01  3.059813E-02  9.747702E-03  6.867951E-03
203  -999  -999  -999  -999  3.074835E-12  5.745653E-09  2.306116E-01  3.059594E-02  9.745605E-03  6.867374E-03
204  -999  -999  -999  -999  2.010722E-12  5.203857E-09  2.306075E-01  3.059420E-02  9.744766E-03  6.867207E-03
205  -999  -999  -999  -999  2.002740E-12  4.903550E-09  2.305997E-01  3.059725E-02  9.743421E-03  6.866648E-03
206  -999  -999  -999  -999  2.943478E-12  6.457839E-09  2.305869E-01  3.058891E-02  9.740607E-03  6.866079E-03
207  -999  -999  -999  -999  2.870136E-12  6.472773E-09  2.305724E-01  3.059023E-02  9.738833E-03  6.866538E-03
208  -999  -999  -999  -999  2.519139E-12  5.083740E-09  2.305850E-01  3.059459E-02  9.741619E-03  6.866749E-03
209  -999  -999  -999  -999  2.223925E-12  4.793775E-09  2.305751E-01  3.058985E-02  9.740426E-03  6.866985E-03
210  -999  -999  -999  -999  2.655160E-12  5.798490E-09  2.305602E-01  3.058573E-02  9.738253E-03  6.866806E-03
211  -999  -999  -999  -999  1.764071E-12  5.045241E-09  2.305538E-01  3.058593E-02  9.737455E-03  6.866571E-03
212  -999  -999  -999  -999  1.881366E-12  4.882532E-09  2.305439E-01  3.058621E-02  9.735698E-03  6.866009E-03
213  -999  -999  -999  -999  2.852321E-12  6.107968E-09  2.305272E-01  3.058213E-02  9.733259E-03  6.865577E-03
214  -999  -999  -999  -999  1.966468E-12  4.918000E-09  2.305252E-01  3.058187E-02  9.732965E-03  6.865469E-03
215  -999  -999  -999  -999  1.702170E-12  4.556776E-09  2.305193E-01  3.058409E-02  9.731602E-03  6.865058E-03
216  -999  -999  -999  -999  1.935236E-12  4.783121E-09  2.305140E-01  3.058080E-02  9.730400E-03  6.864841E-03
217  -999  -999  -999  -999  2.089592E-12  4.947396E-09  2.305007E-01  3.057805E-02  9.728392E-03  6.865005E-03
218  -999  -999  -999  -999  1.372998E-12  4.532459E-09  2.304967E-01  3.057747E-02  9.727769E-03  6.865116E-03
219  -999  -999  -999  -999  1.267962E-12  4.225526E-09  2.304905E-01  3.057538E-02  9.726919E-03  6.865139E-03
220  -999  -999  -999  -999  1.473610E-12  4.386027E-09  2.304853E-01  3.057393E-02  9.725851E-03  6.864803E-03
221  -999  -999  -999  -999  1.602826E-12  4.381952E-09  2.304741E-01  3.057191E-02  9.724398E-03  6.864926E-03
222  -999  -999  -999  -999  1.950656E-12  4.965929E-09  2.304657E-01  3.057030E-02  9.723003E-03  6.864701E-03
223  -999  -999  -999  -999  2.625379E-12  5.698504E-09  2.304498E-01  3.056778E-02  9.720324E-03  6.864085E-03
224  -999  -999  -999  -999  1.742078E-12  4.770479E-09  2.304455E-01  3.056864E-02  9.719491E-03  6.863869E-03
225  -999  -999  -999  -999  1.673103E-12  4.232624E-09  2.304392E-01  3.056999E-02  9.718209E-03  6.863839E-03
226  -999  -999  -999  -999  2.458551E-12  5.524383E-09  2.304256E-01  3.056428E-02  9.715418E-03  6.863497E-03
227  -999  -999  -999  -999  2.244430E-12  5.737423E-09  2.304210E-01  3.056495E-02  9.714257E-03  6.863186E-03
228  -999  -999  -999  -999  2.209720E-12  4.453451E-09  2.304296E-01  3.056880E-02  9.716847E-03  6.863177E-03
229  -999  -999  -999  -999  1.823642E-12  3.933116E-09  2.304240E-01  3.056765E-02  9.716058E-03  6.863547E-03
230  -999  -999  -999  -999  1.178023E-12  3.683464E-09  2.304237E-01  3.056748E-02  9.715698E-03  6.863508E-03
231  -999  -999  -999  -999  1.268623E-12  3.810865E-09  2.304178E-01  3.056409E-02  9.714830E-03  6.863552E-03
232  -999  -999  -999  -999  1.184712E-12  3.880175E-09  2.304106E-01  3.056002E-02  9.713841E-03  6.863719E-03
233  -999  -999  -999  -999  1.451140E-12  4.467932E-09  2.303995E-01  3.055805E-02  9.712512E-03  6.863660E-03
234  -999  -999  -999  -999  1.062323E-12  3.268599E-09  2.304077E-01  3.055933E-02  9.714368E-03  6.863980E-03
235  -999  -999  -999  -999  1.162240E-12  3.481250E-09  2.303985E-01  3.055766E-02  9.713438E-03  6.863862E-03
236  -999  -999  -999  -999  1.352990E-12  3.756596E-09  2.303951E-01  3.055774E-02  9.712836E-03  6.863622E-03
237  -999  -999  -999  -999  2.007271E-12  4.497625E-09  2.303853E-01  3.055811E-02  9.711049E-03  6.862813E-03
238  -999  -999  -999  -999  1.441494E-12  4.073536E-09  2.303833E-01  3.055888E-02  9.710482E-03  6.862434E-03
239  -999  -999  -999  -999  1.330728E-12  3.640340E-09  2.303800E-01  3.055951E-02  9.709791E-03  6.862312E-03
240  -999  -999  -999  -999  1.412216E-12  3.775520E-09  2.303775E-01  3.055803E-02  9.708969E-03  6.862091E-03
241  -999  -999  -999  -999  1.602577E-12  4.022794E-09  2.303690E-01  3.055596E-02  9.707105E-03  6.861855E-03
242  -999  -999  -999  -999  1.084609E-12  3.682416E-09  2.303660E-01  3.055574E-02  9.706577E-03  6.862078E-03
243  -999  -999  -999  -999  9.718277E-13  3.378780E-09  2.303618E-01  3.055457E-02  9.706038E-03  6.862188E-03
244  -999  -999  -999  -999  9.836121E-13  3.429603E-09  2.303599E-01  3.055393E-02  9.705502E-03  6.862113E-03
245  -999  -999  -999  -999  1.073534E-12  3.545796E-09  2.303518E-01  3.055104E-02  9.704042E-03  6.862210E-03
246  -999  -999  -999  -999  1.180002E-12  3.847455E-09  2.303471E-01  3.054963E-02  9.703337E-03  6.862190E-03
247  -999  -999  -999  -999  1.622401E-12  4.663970E-09  2.303335E-01  3.054624E-02  9.701175E-03  6.861913E-03
248  -999  -999  -999  -999  1.182220E-12  3.142462E-09  2.303417E-01  3.054768E-02  9.703974E-03  6.862524E-03
249  -999  -999  -999  -999  1.041658E-12  2.617935E-09  2.303442E-01  3.054825E-02  9.704933E-03  6.862637E-03
250  -999  -999  -999  -999  1.260959E-12  2.821118E-09  2.303402E-01  3.054803E-02  9.704002E-03  6.862317E-03
251  -999  -999  -999  -999  9.514346E-13  2.825585E-09  2.303386E-01  3.054891E-02  9.703494E-03  6.861958E-03
252  -999  -999  -999  -999  1.099933E-12  3.051401E-09  2.303345E-01  3.054986E-02  9.702756E-03  6.861660E-03
253  -999  -999  -999  -999  1.524627E-12  3.413945E-09  2.303298E-01  3.054884E-02  9.701810E-03  6.861052E-03
254  -999  -999  -999  -999  1.498406E-12  3.160660E-09  2.303289E-01  3.054951E-02  9.701508E-03  6.861062E-03
255  -999  -999  -999  -999  1.132016E-12  2.997293E-09  2.303262E-01  3.054882E-02  9.701153E-03  6.861070E-03
256  -999  -999  -999  -999  1.332661E-12  3.893218E-09  2.303209E-01  3.054952E-02  9.699402E-03  6.860868E-03
257  -999  -999  -999  -999  1.240185E-12  3.874774E-09  2.303148E-01  3.054686E-02  9.698468E-03  6.861012E-03
258  -999  -999  -999  -999  1.055477E-12  2.801361E-09  2.303218E-01  3.055032E-02  9.700329E-03  6.861094E-03
259  -999  -999  -999  -999  9.763122E-13  2.754317E-09  2.303181E-01  3.054681E-02  9.699684E-03  6.861087E-03
260  -999  -999  -999  -999  1.072844E-12  3.319554E-09  2.303117E-01  3.054433E-02  9.698723E-03  6.861258E-03
261  -999  -999  -999  -999  9.025805E-13  2.414804E-09  2.303173E-01  3.054614E-02  9.700004E-03  6.861436E-03
262  -999  -999  -999  -999  8.568172E-13  2.100205E-09  2.303192E-01  3.054693E-02  9.700544E-03  6.861459E-03
263  -999  -999  -999  -999  9.181733E-13  2.402095E-09  2.303147E-01  3.054511E-02  9.699960E-03  6.861485E-03
264  -999  -999  -999  -999  6.896035E-13  2.382045E-09  2.303133E-01  3.054512E-02  9.699777E-03  6.861458E-03
265  -999  -999  -999  -999  1.055733E-12  2.941894E-09  2.303076E-01  3.054361E-02  9.699128E-03  6.861677E-03
266  -999  -999  -999  -999  8.067128E-13  2.853151E-09  2.303042E-01  3.054223E-02  9.698582E-03  6.861224E-03
267  -999  -999  -999  -999  5.907681E-13  2.691707E-09  2.303026E-01  3.054257E-02  9.698314E-03  6.861096E-03