TITLE     = "Surface mesh and solution"
VARIABLES = "x"
"y"
"z"
"cfx"
"Cp"
DATASETAUXDATA alpha_deg="  0.0000000E+00"
DATASETAUXDATA beta_deg="  0.0000000E+00"
DATASETAUXDATA bref="  0.7500000"
DATASETAUXDATA cref="   1.000000"
DATASETAUXDATA itranflg="           0"
DATASETAUXDATA ivisc="           2"
DATASETAUXDATA mach="  0.2000000"
DATASETAUXDATA reue_mil="   4.600000"
DATASETAUXDATA sref="  0.7500000"
DATASETAUXDATA tinf_r="   521.0000"
DATASETAUXDATA xmc="  0.0000000E+00"
DATASETAUXDATA ymc="  0.0000000E+00"
DATASETAUXDATA zmc="  0.0000000E+00"
ZONE T="WOLF, INRIA adapt Y=-0.001"
STRANDID=0, SOLUTIONTIME=0
Nodes=1473, Elements=1473, ZONETYPE=FELineSeg
DATAPACKING=POINT
DT=(DOUBLE DOUBLE DOUBLE DOUBLE DOUBLE )
-0.246340 -0.001000 0.042454 0.001320	-0.571390
-0.246365 -0.001000 0.042215 0.001111	-0.518934
-0.246371 -0.001000 0.042145 0.001053	-0.507218
-0.246390 -0.001000 0.041923 0.000871	-0.467622
-0.246398 -0.001000 0.041822 0.000804	-0.451887
-0.246408 -0.001000 0.041675 0.000702	-0.432933
-0.246415 -0.001000 0.041554 0.000606	-0.419512
-0.246424 -0.001000 0.041366 0.000454	-0.386733
-0.246427 -0.001000 0.041307 0.000414	-0.377525
-0.246429 -0.001000 0.041238 0.000366	-0.365835
-0.246434 -0.001000 0.041059 0.000254	-0.337389
-0.246437 -0.001000 0.040903 0.000150	-0.328125
-0.246438 -0.001000 0.040846 0.000113	-0.324157
-0.246438 -0.001000 0.040803 0.000086	-0.318955
-0.246439 -0.001000 0.040672 0.000004	-0.292533
-0.246439 -0.001000 0.040626 -0.000030	-0.288696
-0.246438 -0.001000 0.040511 -0.000110	-0.272391
-0.246438 -0.001000 0.040478 -0.000130	-0.264811
-0.246435 -0.001000 0.040315 -0.000222	-0.230326
-0.246433 -0.001000 0.040238 -0.000270	-0.220731
-0.246428 -0.001000 0.040065 -0.000375	-0.196405
-0.246421 -0.001000 0.039905 -0.000471	-0.173920
-0.246416 -0.001000 0.039806 -0.000524	-0.159746
-0.246403 -0.001000 0.039594 -0.000643	-0.122516
-0.246399 -0.001000 0.039533 -0.000674	-0.113960
-0.246383 -0.001000 0.039328 -0.000778	-0.090022
-0.246374 -0.001000 0.039223 -0.000833	-0.076578
-0.246360 -0.001000 0.039063 -0.000918	-0.055389
-0.246339 -0.001000 0.038872 -0.001017	-0.021035
-0.246326 -0.001000 0.038752 -0.001085	-0.002398
-0.246301 -0.001000 0.038553 -0.001158	0.020052
-0.246298 -0.001000 0.038528 -0.001161	0.024223
-0.246261 -0.001000 0.038265 -0.001246	0.065964
-0.246253 -0.001000 0.038206 -0.001257	0.072506
-0.246227 -0.001000 0.038044 -0.001336	0.102907
-0.246200 -0.001000 0.037879 -0.001473	0.128839
-0.246182 -0.001000 0.037776 -0.001499	0.140553
-0.246145 -0.001000 0.037576 -0.001515	0.164661
-0.246133 -0.001000 0.037509 -0.001528	0.171448
-0.246096 -0.001000 0.037326 -0.001593	0.192311
-0.246083 -0.001000 0.037260 -0.001608	0.200919
-0.246044 -0.001000 0.037079 -0.001641	0.222755
-0.246015 -0.001000 0.036946 -0.001678	0.244271
-0.245980 -0.001000 0.036793 -0.001727	0.268427
-0.245951 -0.001000 0.036674 -0.001732	0.281999
-0.245910 -0.001000 0.036506 -0.001806	0.301472
-0.245885 -0.001000 0.036406 -0.001838	0.313806
-0.245834 -0.001000 0.036214 -0.001877	0.336264
-0.245822 -0.001000 0.036171 -0.001892	0.341571
-0.245768 -0.001000 0.035972 -0.001870	0.360556
-0.245740 -0.001000 0.035875 -0.001902	0.370516
-0.245691 -0.001000 0.035709 -0.001982	0.390401
-0.245661 -0.001000 0.035608 -0.002002	0.401781
-0.245617 -0.001000 0.035465 -0.002026	0.420938
-0.245564 -0.001000 0.035296 -0.002027	0.440216
-0.245539 -0.001000 0.035219 -0.002020	0.449012
-0.245449 -0.001000 0.034947 -0.002048	0.474299
-0.245444 -0.001000 0.034933 -0.002050	0.475531
-0.245441 -0.001000 0.034924 -0.002053	0.476892
-0.245390 -0.001000 0.034777 -0.002038	0.492187
-0.245345 -0.001000 0.034648 -0.002029	0.505836
-0.245338 -0.001000 0.034630 -0.002029	0.507467
-0.245257 -0.001000 0.034408 -0.002015	0.523556
-0.245216 -0.001000 0.034296 -0.002023	0.534108
-0.245167 -0.001000 0.034168 -0.002042	0.548979
-0.245103 -0.001000 0.034003 -0.002022	0.565560
-0.245063 -0.001000 0.033902 -0.002050	0.576526
-0.245014 -0.001000 0.033779 -0.002071	0.588902
-0.244939 -0.001000 0.033597 -0.002046	0.602972
-0.244907 -0.001000 0.033520 -0.002050	0.609267
-0.244852 -0.001000 0.033390 -0.002079	0.617760
-0.244802 -0.001000 0.033273 -0.002076	0.626477
-0.244781 -0.001000 0.033225 -0.002071	0.629799
-0.244701 -0.001000 0.033044 -0.002048	0.646354
-0.244665 -0.001000 0.032964 -0.002083	0.654282
-0.244570 -0.001000 0.032754 -0.002101	0.670133
-0.244560 -0.001000 0.032732 -0.002100	0.671625
-0.244512 -0.001000 0.032631 -0.002054	0.680106
-0.244452 -0.001000 0.032502 -0.001988	0.690313
-0.244428 -0.001000 0.032452 -0.001986	0.694751
-0.244348 -0.001000 0.032287 -0.001963	0.707232
-0.244265 -0.001000 0.032118 -0.001980	0.718041
-0.244226 -0.001000 0.032038 -0.001982	0.722709
-0.244112 -0.001000 0.031814 -0.001926	0.736357
-0.244086 -0.001000 0.031763 -0.001918	0.739842
-0.243976 -0.001000 0.031552 -0.001868	0.755972
-0.243888 -0.001000 0.031386 -0.001828	0.766690
-0.243797 -0.001000 0.031219 -0.001796	0.777995
-0.243703 -0.001000 0.031048 -0.001753	0.786787
-0.243623 -0.001000 0.030905 -0.001712	0.794453
-0.243516 -0.001000 0.030716 -0.001732	0.802760
-0.243474 -0.001000 0.030643 -0.001723	0.807009
-0.243435 -0.001000 0.030575 -0.001723	0.810874
-0.243302 -0.001000 0.030348 -0.001708	0.823973
-0.243218 -0.001000 0.030207 -0.001671	0.831167
-0.243129 -0.001000 0.030058 -0.001614	0.838807
-0.243012 -0.001000 0.029869 -0.001591	0.848697
-0.242958 -0.001000 0.029780 -0.001574	0.853344
-0.242899 -0.001000 0.029687 -0.001570	0.858038
-0.242782 -0.001000 0.029501 -0.001564	0.865755
-0.242619 -0.001000 0.029249 -0.001531	0.876328
-0.242567 -0.001000 0.029168 -0.001509	0.880042
-0.242520 -0.001000 0.029096 -0.001491	0.882853
-0.242316 -0.001000 0.028790 -0.001409	0.894753
-0.242257 -0.001000 0.028703 -0.001394	0.898667
-0.242194 -0.001000 0.028610 -0.001389	0.902067
-0.242064 -0.001000 0.028420 -0.001368	0.909429
-0.241914 -0.001000 0.028205 -0.001331	0.916384
-0.241871 -0.001000 0.028145 -0.001318	0.918568
-0.241704 -0.001000 0.027910 -0.001290	0.926917
-0.241694 -0.001000 0.027897 -0.001287	0.927334
-0.241521 -0.001000 0.027657 -0.001139	0.933893
-0.241449 -0.001000 0.027560 -0.001104	0.936781
-0.241308 -0.001000 0.027368 -0.001085	0.942558
-0.241191 -0.001000 0.027213 -0.001032	0.946268
-0.241051 -0.001000 0.027027 -0.000998	0.951344
-0.240876 -0.001000 0.026800 -0.000978	0.956877
-0.240760 -0.001000 0.026650 -0.000952	0.960064
-0.240569 -0.001000 0.026407 -0.000907	0.964446
-0.240496 -0.001000 0.026315 -0.000885	0.966039
-0.240335 -0.001000 0.026114 -0.000852	0.970421
-0.240213 -0.001000 0.025964 -0.000820	0.973520
-0.240118 -0.001000 0.025848 -0.000794	0.975842
-0.239986 -0.001000 0.025689 -0.000759	0.978320
-0.239857 -0.001000 0.025533 -0.000726	0.980996
-0.239685 -0.001000 0.025329 -0.000689	0.984040
-0.239562 -0.001000 0.025184 -0.000666	0.986388
-0.239529 -0.001000 0.025145 -0.000655	0.986838
-0.239403 -0.001000 0.025000 -0.000630	0.988755
-0.239184 -0.001000 0.024746 -0.000583	0.992122
-0.239038 -0.001000 0.024581 -0.000557	0.994054
-0.238799 -0.001000 0.024312 -0.000522	0.997146
-0.238502 -0.001000 0.023984 -0.000478	1.000271
-0.238441 -0.001000 0.023917 -0.000466	1.000890
-0.238389 -0.001000 0.023860 -0.000458	1.001421
-0.238042 -0.001000 0.023486 -0.000387	1.004415
-0.237937 -0.001000 0.023375 -0.000362	1.005205
-0.237575 -0.001000 0.022995 -0.000295	1.007649
-0.237514 -0.001000 0.022932 -0.000286	1.007994
-0.237421 -0.001000 0.022835 -0.000273	1.008251
-0.236986 -0.001000 0.022391 -0.000201	1.009781
-0.236833 -0.001000 0.022237 -0.000172	1.010455
-0.236425 -0.001000 0.021831 -0.000107	1.011167
-0.236317 -0.001000 0.021726 -0.000094	1.011434
-0.235984 -0.001000 0.021402 -0.000057	1.012643
-0.235901 -0.001000 0.021322 -0.000046	1.012703
-0.235678 -0.001000 0.021108 -0.000007	1.013116
-0.235510 -0.001000 0.020948 0.000020	1.012974
-0.235421 -0.001000 0.020864 0.000032	1.012950
-0.235233 -0.001000 0.020688 0.000056	1.012604
-0.235099 -0.001000 0.020563 0.000072	1.012494
-0.235063 -0.001000 0.020529 0.000078	1.012435
-0.234830 -0.001000 0.020313 0.000109	1.011932
-0.234675 -0.001000 0.020171 0.000126	1.011764
-0.234524 -0.001000 0.020033 0.000141	1.011795
-0.234182 -0.001000 0.019723 0.000171	1.010766
-0.234129 -0.001000 0.019676 0.000177	1.010667
-0.234085 -0.001000 0.019637 0.000183	1.010370
-0.233843 -0.001000 0.019421 0.000218	1.009457
-0.233619 -0.001000 0.019223 0.000246	1.008156
-0.233449 -0.001000 0.019074 0.000269	1.007396
-0.233237 -0.001000 0.018889 0.000297	1.006826
-0.232850 -0.001000 0.018556 0.000334	1.005330
-0.232762 -0.001000 0.018481 0.000341	1.004975
-0.232345 -0.001000 0.018128 0.000373	1.002543
-0.231992 -0.001000 0.017831 0.000400	1.000529
-0.231968 -0.001000 0.017810 0.000401	1.000361
-0.231889 -0.001000 0.017746 0.000409	0.999848
-0.231187 -0.001000 0.017170 0.000473	0.995461
-0.230966 -0.001000 0.016991 0.000486	0.994414
-0.230375 -0.001000 0.016517 0.000538	0.990824
-0.230306 -0.001000 0.016462 0.000545	0.990318
-0.230028 -0.001000 0.016244 0.000570	0.988394
-0.229752 -0.001000 0.016026 0.000591	0.986496
-0.229630 -0.001000 0.015931 0.000597	0.985613
-0.229148 -0.001000 0.015559 0.000628	0.982451
-0.228927 -0.001000 0.015390 0.000641	0.981023
-0.228486 -0.001000 0.015055 0.000679	0.977539
-0.228333 -0.001000 0.014940 0.000694	0.976343
-0.227901 -0.001000 0.014616 0.000711	0.973307
-0.227606 -0.001000 0.014398 0.000723	0.970784
-0.227346 -0.001000 0.014206 0.000730	0.968490
-0.226953 -0.001000 0.013919 0.000764	0.965289
-0.226841 -0.001000 0.013837 0.000772	0.964367
-0.226755 -0.001000 0.013775 0.000776	0.963704
-0.226349 -0.001000 0.013482 0.000802	0.960545
-0.226014 -0.001000 0.013243 0.000831	0.958017
-0.225855 -0.001000 0.013129 0.000833	0.956713
-0.225435 -0.001000 0.012833 0.000871	0.953092
-0.225434 -0.001000 0.012832 0.000871	0.953082
-0.224919 -0.001000 0.012472 0.000868	0.948182
-0.224910 -0.001000 0.012466 0.000868	0.948121
-0.224276 -0.001000 0.012027 0.000897	0.943731
-0.224244 -0.001000 0.012005 0.000900	0.943490
-0.223806 -0.001000 0.011706 0.000930	0.940231
-0.223351 -0.001000 0.011398 0.000940	0.936528
-0.223302 -0.001000 0.011366 0.000940	0.936128
-0.222584 -0.001000 0.010885 0.000966	0.930490
-0.222546 -0.001000 0.010860 0.000968	0.930194
-0.221981 -0.001000 0.010487 0.001004	0.925677
-0.221476 -0.001000 0.010158 0.001011	0.921182
-0.221300 -0.001000 0.010043 0.001009	0.919549
-0.221224 -0.001000 0.009994 0.001011	0.918999
-0.220580 -0.001000 0.009580 0.001028	0.913939
-0.220491 -0.001000 0.009523 0.001028	0.913267
-0.220271 -0.001000 0.009383 0.001035	0.911800
-0.219816 -0.001000 0.009095 0.001045	0.908951
-0.219363 -0.001000 0.008810 0.001054	0.905413
-0.219196 -0.001000 0.008705 0.001057	0.904072
-0.219088 -0.001000 0.008638 0.001062	0.903252
-0.218618 -0.001000 0.008345 0.001090	0.899574
-0.218094 -0.001000 0.008022 0.001100	0.895118
-0.218012 -0.001000 0.007971 0.001101	0.894438
-0.217686 -0.001000 0.007773 0.001110	0.892128
-0.217399 -0.001000 0.007597 0.001118	0.890021
-0.217299 -0.001000 0.007537 0.001121	0.889269
-0.216808 -0.001000 0.007240 0.001142	0.885576
-0.216329 -0.001000 0.006954 0.001163	0.882325
-0.216120 -0.001000 0.006828 0.001167	0.880756
-0.215756 -0.001000 0.006612 0.001179	0.878110
-0.215416 -0.001000 0.006411 0.001181	0.875604
-0.214998 -0.001000 0.006165 0.001202	0.872230
-0.214679 -0.001000 0.005978 0.001213	0.869472
-0.214595 -0.001000 0.005929 0.001211	0.868901
-0.213990 -0.001000 0.005579 0.001235	0.864352
-0.213915 -0.001000 0.005535 0.001236	0.863772
-0.213850 -0.001000 0.005498 0.001235	0.863322
-0.213222 -0.001000 0.005138 0.001208	0.858837
-0.213097 -0.001000 0.005067 0.001210	0.858054
-0.212477 -0.001000 0.004715 0.001210	0.854326
-0.212343 -0.001000 0.004639 0.001215	0.853384
-0.211687 -0.001000 0.004270 0.001251	0.848569
-0.211617 -0.001000 0.004231 0.001258	0.848013
-0.211429 -0.001000 0.004126 0.001269	0.846690
-0.210882 -0.001000 0.003821 0.001275	0.842858
-0.210363 -0.001000 0.003535 0.001297	0.838713
-0.210069 -0.001000 0.003373 0.001293	0.836726
-0.209829 -0.001000 0.003242 0.001291	0.835161
-0.209208 -0.001000 0.002903 0.001295	0.831272
-0.208540 -0.001000 0.002543 0.001301	0.827802
-0.208387 -0.001000 0.002461 0.001299	0.827070
-0.207680 -0.001000 0.002083 0.001326	0.822340
-0.207593 -0.001000 0.002037 0.001329	0.821770
-0.206888 -0.001000 0.001662 0.001350	0.817273
-0.206883 -0.001000 0.001660 0.001350	0.817245
-0.206869 -0.001000 0.001652 0.001350	0.817139
-0.206292 -0.001000 0.001349 0.001355	0.813169
-0.206225 -0.001000 0.001314 0.001352	0.812797
-0.205651 -0.001000 0.001014 0.001352	0.809434
-0.205553 -0.001000 0.000963 0.001353	0.808825
-0.204997 -0.001000 0.000676 0.001351	0.805379
-0.204701 -0.001000 0.000522 0.001349	0.803539
-0.204585 -0.001000 0.000463 0.001351	0.802845
-0.203754 -0.001000 0.000037 0.001413	0.798225
-0.203718 -0.001000 0.000019 0.001415	0.798025
-0.203713 -0.001000 0.000016 0.001415	0.797992
-0.202998 -0.001000 -0.000347 0.001414	0.793872
-0.202267 -0.001000 -0.000715 0.001433	0.789498
-0.202087 -0.001000 -0.000805 0.001432	0.788378
-0.201909 -0.001000 -0.000894 0.001442	0.787211
-0.201168 -0.001000 -0.001263 0.001465	0.782550
-0.200933 -0.001000 -0.001380 0.001462	0.781236
-0.200276 -0.001000 -0.001702 0.001457	0.777937
-0.200114 -0.001000 -0.001782 0.001454	0.777083
-0.200022 -0.001000 -0.001827 0.001456	0.776678
-0.199318 -0.001000 -0.002171 0.001475	0.773232
-0.198919 -0.001000 -0.002366 0.001479	0.770792
-0.198559 -0.001000 -0.002540 0.001482	0.768586
-0.198289 -0.001000 -0.002671 0.001486	0.766905
-0.197569 -0.001000 -0.003016 0.001493	0.762741
-0.197323 -0.001000 -0.003134 0.001497	0.761311
-0.196857 -0.001000 -0.003356 0.001507	0.758824
-0.196379 -0.001000 -0.003583 0.001512	0.756591
-0.195702 -0.001000 -0.003902 0.001511	0.753591
-0.195509 -0.001000 -0.003993 0.001522	0.752522
-0.194826 -0.001000 -0.004312 0.001541	0.749084
-0.194567 -0.001000 -0.004433 0.001544	0.747860
-0.193923 -0.001000 -0.004732 0.001550	0.745098
-0.193501 -0.001000 -0.004927 0.001546	0.743227
-0.193019 -0.001000 -0.005149 0.001559	0.741110
-0.192447 -0.001000 -0.005411 0.001594	0.738410
-0.192201 -0.001000 -0.005524 0.001604	0.737226
-0.191973 -0.001000 -0.005628 0.001603	0.735917
-0.191352 -0.001000 -0.005909 0.001591	0.732805
-0.190951 -0.001000 -0.006091 0.001595	0.730863
-0.190200 -0.001000 -0.006428 0.001605	0.727218
-0.189998 -0.001000 -0.006519 0.001602	0.726182
-0.189869 -0.001000 -0.006577 0.001607	0.725524
-0.188965 -0.001000 -0.006980 0.001626	0.720894
-0.188764 -0.001000 -0.007069 0.001629	0.719762
-0.188023 -0.001000 -0.007396 0.001660	0.715408
-0.187915 -0.001000 -0.007444 0.001664	0.714963
-0.187247 -0.001000 -0.007737 0.001675	0.712647
-0.186305 -0.001000 -0.008147 0.001693	0.709163
-0.186280 -0.001000 -0.008158 0.001692	0.709066
-0.186261 -0.001000 -0.008166 0.001693	0.708997
-0.184966 -0.001000 -0.008726 0.001718	0.703698
-0.184933 -0.001000 -0.008740 0.001719	0.703565
-0.184932 -0.001000 -0.008740 0.001719	0.703562
-0.183585 -0.001000 -0.009317 0.001741	0.698299
-0.183489 -0.001000 -0.009358 0.001746	0.697898
-0.183342 -0.001000 -0.009420 0.001753	0.697306
-0.182378 -0.001000 -0.009828 0.001783	0.693215
-0.181695 -0.001000 -0.010115 0.001790	0.689796
-0.181577 -0.001000 -0.010165 0.001787	0.689258
-0.181414 -0.001000 -0.010233 0.001789	0.688601
-0.180704 -0.001000 -0.010529 0.001741	0.685760
-0.180015 -0.001000 -0.010814 0.001763	0.683607
-0.179750 -0.001000 -0.010924 0.001753	0.682784
-0.179618 -0.001000 -0.010979 0.001751	0.682289
-0.178658 -0.001000 -0.011374 0.001766	0.679088
-0.178495 -0.001000 -0.011441 0.001772	0.678551
-0.177751 -0.001000 -0.011745 0.001781	0.676435
-0.177415 -0.001000 -0.011882 0.001784	0.675542
-0.176743 -0.001000 -0.012155 0.001856	0.672890
-0.176501 -0.001000 -0.012253 0.001861	0.671809
-0.175656 -0.001000 -0.012594 0.001865	0.667692
-0.175634 -0.001000 -0.012603 0.001864	0.667584
-0.175631 -0.001000 -0.012604 0.001865	0.667573
-0.174362 -0.001000 -0.013112 0.001855	0.663393
-0.174131 -0.001000 -0.013203 0.001847	0.662667
-0.172961 -0.001000 -0.013666 0.001816	0.657879
-0.172684 -0.001000 -0.013775 0.001828	0.657103
-0.171718 -0.001000 -0.014155 0.001889	0.654069
-0.171535 -0.001000 -0.014226 0.001899	0.653298
-0.171417 -0.001000 -0.014272 0.001898	0.652838
-0.170481 -0.001000 -0.014636 0.001865	0.649472
-0.170182 -0.001000 -0.014751 0.001865	0.648735
-0.169379 -0.001000 -0.015062 0.001864	0.646077
-0.168771 -0.001000 -0.015296 0.001873	0.643894
-0.168105 -0.001000 -0.015551 0.001887	0.642230
-0.167359 -0.001000 -0.015836 0.001914	0.640423
-0.166871 -0.001000 -0.016022 0.001911	0.639168
-0.166101 -0.001000 -0.016314 0.001902	0.636598
-0.165691 -0.001000 -0.016469 0.001918	0.634920
-0.164437 -0.001000 -0.016940 0.001962	0.630709
-0.164384 -0.001000 -0.016960 0.001961	0.630553
-0.164335 -0.001000 -0.016978 0.001960	0.630362
-0.164143 -0.001000 -0.017049 0.001969	0.629657
-0.162884 -0.001000 -0.017518 0.001992	0.624946
-0.162632 -0.001000 -0.017611 0.001994	0.624076
-0.161697 -0.001000 -0.017956 0.001968	0.620852
-0.160917 -0.001000 -0.018242 0.001961	0.618665
-0.160530 -0.001000 -0.018383 0.001941	0.617616
-0.159329 -0.001000 -0.018821 0.001994	0.614731
-0.159005 -0.001000 -0.018938 0.002000	0.613986
-0.158021 -0.001000 -0.019292 0.001973	0.611143
-0.157466 -0.001000 -0.019491 0.002009	0.609611
-0.156702 -0.001000 -0.019765 0.001989	0.607832
-0.155968 -0.001000 -0.020026 0.002003	0.606038
-0.155334 -0.001000 -0.020251 0.002013	0.604285
-0.154537 -0.001000 -0.020533 0.001966	0.601926
-0.153662 -0.001000 -0.020841 0.001986	0.599753
-0.153069 -0.001000 -0.021049 0.001960	0.598326
-0.151947 -0.001000 -0.021441 0.001986	0.595374
-0.151542 -0.001000 -0.021582 0.001998	0.594244
-0.150425 -0.001000 -0.021969 0.002005	0.591320
-0.149927 -0.001000 -0.022141 0.002011	0.590224
-0.148888 -0.001000 -0.022498 0.001996	0.587856
-0.148177 -0.001000 -0.022741 0.001989	0.586140
-0.147261 -0.001000 -0.023053 0.001974	0.584137
-0.146166 -0.001000 -0.023424 0.002020	0.581739
-0.145492 -0.001000 -0.023651 0.002036	0.580501
-0.144194 -0.001000 -0.024086 0.002026	0.577954
-0.143950 -0.001000 -0.024168 0.002017	0.577458
-0.143830 -0.001000 -0.024208 0.002023	0.577063
-0.142950 -0.001000 -0.024501 0.002046	0.574348
-0.142304 -0.001000 -0.024716 0.002050	0.572459
-0.142118 -0.001000 -0.024778 0.002061	0.571875
-0.141571 -0.001000 -0.024958 0.002074	0.570859
-0.140177 -0.001000 -0.025416 0.002096	0.567985
-0.139985 -0.001000 -0.025479 0.002088	0.567562
-0.138985 -0.001000 -0.025805 0.002140	0.564851
-0.138564 -0.001000 -0.025942 0.002142	0.563727
-0.137247 -0.001000 -0.026369 0.002089	0.561307
-0.136859 -0.001000 -0.026494 0.002081	0.560506
-0.135689 -0.001000 -0.026870 0.002146	0.558257
-0.135282 -0.001000 -0.027001 0.002152	0.557450
-0.135212 -0.001000 -0.027023 0.002153	0.557315
-0.134977 -0.001000 -0.027098 0.002153	0.556776
-0.133568 -0.001000 -0.027547 0.002080	0.553616
-0.132501 -0.001000 -0.027884 0.002082	0.551583
-0.132027 -0.001000 -0.028034 0.002064	0.550637
-0.131808 -0.001000 -0.028103 0.002064	0.550158
-0.130313 -0.001000 -0.028571 0.002058	0.546628
-0.130111 -0.001000 -0.028634 0.002059	0.546248
-0.129213 -0.001000 -0.028914 0.002083	0.544469
-0.128592 -0.001000 -0.029107 0.002073	0.543274
-0.127980 -0.001000 -0.029296 0.002075	0.542453
-0.127142 -0.001000 -0.029554 0.002040	0.541456
-0.126888 -0.001000 -0.029633 0.002038	0.541097
-0.125847 -0.001000 -0.029952 0.002027	0.539624
-0.124948 -0.001000 -0.030226 0.002012	0.538038
-0.124838 -0.001000 -0.030260 0.002003	0.537839
-0.124609 -0.001000 -0.030329 0.002037	0.537364
-0.123781 -0.001000 -0.030582 0.002122	0.535759
-0.123538 -0.001000 -0.030656 0.002126	0.535066
-0.122731 -0.001000 -0.030900 0.002045	0.533056
-0.121387 -0.001000 -0.031304 0.002130	0.529847
-0.121356 -0.001000 -0.031313 0.002130	0.529774
-0.121284 -0.001000 -0.031335 0.002132	0.529663
-0.119697 -0.001000 -0.031809 0.002113	0.527131
-0.119417 -0.001000 -0.031892 0.002115	0.526630
-0.118252 -0.001000 -0.032238 0.002115	0.524600
-0.117715 -0.001000 -0.032397 0.002134	0.523625
-0.116713 -0.001000 -0.032692 0.002121	0.522295
-0.115547 -0.001000 -0.033034 0.002147	0.520776
-0.114705 -0.001000 -0.033280 0.002152	0.519534
-0.113290 -0.001000 -0.033692 0.002142	0.517305
-0.112491 -0.001000 -0.033923 0.002120	0.516091
-0.111572 -0.001000 -0.034188 0.002138	0.514368
-0.110894 -0.001000 -0.034383 0.002113	0.513299
-0.110616 -0.001000 -0.034463 0.002118	0.512614
-0.109087 -0.001000 -0.034900 0.002105	0.509158
-0.108920 -0.001000 -0.034948 0.002101	0.508841
-0.108274 -0.001000 -0.035131 0.002122	0.507666
-0.107322 -0.001000 -0.035401 0.002117	0.505963
-0.106803 -0.001000 -0.035547 0.002126	0.505148
-0.105629 -0.001000 -0.035878 0.002125	0.503065
-0.104510 -0.001000 -0.036191 0.002187	0.501104
-0.104131 -0.001000 -0.036297 0.002181	0.500553
-0.102719 -0.001000 -0.036689 0.002102	0.498549
-0.102531 -0.001000 -0.036741 0.002101	0.498305
-0.100711 -0.001000 -0.037243 0.002056	0.496044
-0.100525 -0.001000 -0.037294 0.002057	0.495845
-0.099665 -0.001000 -0.037529 0.002069	0.495518
-0.098441 -0.001000 -0.037864 0.002063	0.494953
-0.097877 -0.001000 -0.038018 0.002054	0.494345
-0.095993 -0.001000 -0.038528 0.002066	0.491627
-0.095649 -0.001000 -0.038621 0.002079	0.491260
-0.094781 -0.001000 -0.038855 0.002090	0.490226
-0.093797 -0.001000 -0.039119 0.002085	0.489089
-0.093568 -0.001000 -0.039180 0.002079	0.488728
-0.091507 -0.001000 -0.039731 0.002145	0.485068
-0.091381 -0.001000 -0.039764 0.002147	0.484880
-0.090872 -0.001000 -0.039899 0.002169	0.484274
-0.089167 -0.001000 -0.040350 0.002195	0.482146
-0.088307 -0.001000 -0.040576 0.002216	0.481401
-0.087354 -0.001000 -0.040826 0.002178	0.480503
-0.086854 -0.001000 -0.040957 0.002188	0.479862
-0.085393 -0.001000 -0.041337 0.002123	0.477829
-0.084432 -0.001000 -0.041587 0.002134	0.476492
-0.083253 -0.001000 -0.041891 0.002163	0.475255
-0.082424 -0.001000 -0.042104 0.002152	0.474522
-0.081039 -0.001000 -0.042459 0.002085	0.472437
-0.080775 -0.001000 -0.042527 0.002067	0.471993
-0.080216 -0.001000 -0.042669 0.002091	0.470811
-0.079272 -0.001000 -0.042909 0.002079	0.468920
-0.078116 -0.001000 -0.043201 0.002105	0.467051
-0.077765 -0.001000 -0.043290 0.002097	0.466491
-0.077571 -0.001000 -0.043339 0.002114	0.466259
-0.076314 -0.001000 -0.043655 0.002103	0.464853
-0.074701 -0.001000 -0.044057 0.002145	0.463257
-0.074321 -0.001000 -0.044152 0.002146	0.462781
-0.072322 -0.001000 -0.044647 0.002095	0.460179
-0.071829 -0.001000 -0.044769 0.002074	0.459541
-0.071041 -0.001000 -0.044962 0.002094	0.458799
-0.069677 -0.001000 -0.045297 0.002046	0.457417
-0.067260 -0.001000 -0.045886 0.002090	0.455637
-0.067068 -0.001000 -0.045933 0.002088	0.455477
-0.066912 -0.001000 -0.045970 0.002091	0.455344
-0.064468 -0.001000 -0.046561 0.002058	0.453310
-0.063782 -0.001000 -0.046726 0.002088	0.452823
-0.062348 -0.001000 -0.047069 0.002153	0.451488
-0.061160 -0.001000 -0.047352 0.002167	0.450413
-0.060244 -0.001000 -0.047570 0.002117	0.449621
-0.059033 -0.001000 -0.047857 0.002081	0.448579
-0.057442 -0.001000 -0.048233 0.002104	0.447101
-0.056997 -0.001000 -0.048337 0.002093	0.446649
-0.055224 -0.001000 -0.048753 0.002073	0.444629
-0.054762 -0.001000 -0.048860 0.002088	0.443889
-0.052652 -0.001000 -0.049351 0.002243	0.442037
-0.052637 -0.001000 -0.049354 0.002243	0.442024
-0.052623 -0.001000 -0.049357 0.002242	0.442012
-0.050111 -0.001000 -0.049937 0.002064	0.440011
-0.048024 -0.001000 -0.050414 0.002121	0.437836
-0.047568 -0.001000 -0.050518 0.002124	0.437346
-0.046986 -0.001000 -0.050650 0.002119	0.436998
-0.045086 -0.001000 -0.051080 0.002037	0.435821
-0.044617 -0.001000 -0.051186 0.002019	0.435245
-0.043562 -0.001000 -0.051423 0.002055	0.433749
-0.042397 -0.001000 -0.051684 0.002032	0.432287
-0.041044 -0.001000 -0.051987 0.001971	0.431202
-0.038985 -0.001000 -0.052443 0.002002	0.428892
-0.038770 -0.001000 -0.052491 0.001994	0.428631
-0.038489 -0.001000 -0.052552 0.002005	0.428375
-0.036391 -0.001000 -0.053013 0.002004	0.426490
-0.035044 -0.001000 -0.053308 0.002010	0.425792
-0.034041 -0.001000 -0.053526 0.002042	0.425012
-0.032506 -0.001000 -0.053859 0.002100	0.423387
-0.030107 -0.001000 -0.054376 0.002130	0.421952
-0.029844 -0.001000 -0.054432 0.002121	0.421808
-0.029755 -0.001000 -0.054451 0.002120	0.421762
-0.029036 -0.001000 -0.054605 0.002102	0.421274
-0.026807 -0.001000 -0.055081 0.001999	0.419737
-0.025755 -0.001000 -0.055304 0.002012	0.418933
-0.023978 -0.001000 -0.055681 0.001998	0.417292
-0.021665 -0.001000 -0.056167 0.001944	0.415574
-0.021417 -0.001000 -0.056219 0.001937	0.415439
-0.020853 -0.001000 -0.056337 0.001948	0.415187
-0.018840 -0.001000 -0.056757 0.001943	0.414525
-0.017142 -0.001000 -0.057109 0.001954	0.413636
-0.016394 -0.001000 -0.057264 0.001933	0.413233
-0.015440 -0.001000 -0.057460 0.001946	0.412248
-0.014021 -0.001000 -0.057752 0.001931	0.410638
-0.011193 -0.001000 -0.058329 0.002020	0.407940
-0.011171 -0.001000 -0.058333 0.002021	0.407924
-0.007849 -0.001000 -0.059005 0.002044	0.407046
-0.007434 -0.001000 -0.059088 0.002052	0.406784
-0.005453 -0.001000 -0.059485 0.002004	0.404873
-0.004316 -0.001000 -0.059711 0.002007	0.403856
-0.002882 -0.001000 -0.059996 0.001960	0.402693
-0.001263 -0.001000 -0.060316 0.001994	0.401384
0.000292 -0.001000 -0.060622 0.001979	0.400078
0.001507 -0.001000 -0.060860 0.001916	0.399244
0.002856 -0.001000 -0.061123 0.001930	0.398020
0.004359 -0.001000 -0.061415 0.001950	0.396636
0.006593 -0.001000 -0.061846 0.001912	0.394951
0.007797 -0.001000 -0.062077 0.001900	0.394621
0.009676 -0.001000 -0.062436 0.001914	0.394120
0.012544 -0.001000 -0.062980 0.001899	0.392654
0.013082 -0.001000 -0.063082 0.001900	0.392358
0.013965 -0.001000 -0.063247 0.001918	0.391836
0.016348 -0.001000 -0.063695 0.001896	0.390194
0.018237 -0.001000 -0.064047 0.001915	0.389744
0.019845 -0.001000 -0.064346 0.001879	0.389253
0.022933 -0.001000 -0.064916 0.001926	0.388104
0.023068 -0.001000 -0.064940 0.001924	0.388029
0.023364 -0.001000 -0.064994 0.001930	0.387785
0.026684 -0.001000 -0.065602 0.001930	0.384825
0.028739 -0.001000 -0.065974 0.002011	0.383778
0.030126 -0.001000 -0.066226 0.002014	0.383288
0.031080 -0.001000 -0.066397 0.002020	0.382964
0.033521 -0.001000 -0.066835 0.002023	0.382230
0.034611 -0.001000 -0.067030 0.001982	0.381975
0.036682 -0.001000 -0.067398 0.001861	0.381124
0.037978 -0.001000 -0.067628 0.001821	0.380109
0.040157 -0.001000 -0.068012 0.001824	0.378776
0.041778 -0.001000 -0.068296 0.001881	0.377659
0.044484 -0.001000 -0.068768 0.001960	0.375537
0.045266 -0.001000 -0.068904 0.001974	0.375003
0.047529 -0.001000 -0.069294 0.002000	0.374557
0.049051 -0.001000 -0.069557 0.001983	0.374201
0.049694 -0.001000 -0.069666 0.001992	0.374071
0.052582 -0.001000 -0.070160 0.001942	0.373148
0.055542 -0.001000 -0.070661 0.001963	0.371554
0.056141 -0.001000 -0.070762 0.001947	0.371178
0.058722 -0.001000 -0.071195 0.001812	0.369505
0.060760 -0.001000 -0.071534 0.001799	0.368533
0.062253 -0.001000 -0.071782 0.001773	0.367868
0.063302 -0.001000 -0.071955 0.001788	0.367108
0.065823 -0.001000 -0.072370 0.001772	0.365020
0.067848 -0.001000 -0.072700 0.001847	0.364118
0.069619 -0.001000 -0.072989 0.001850	0.363611
0.072165 -0.001000 -0.073400 0.001786	0.363615
0.074197 -0.001000 -0.073727 0.001700	0.363151
0.077184 -0.001000 -0.074203 0.001614	0.362387
0.078026 -0.001000 -0.074337 0.001615	0.362093
0.079393 -0.001000 -0.074553 0.001677	0.360994
0.081478 -0.001000 -0.074883 0.001736	0.359303
0.084889 -0.001000 -0.075417 0.001801	0.358379
0.086034 -0.001000 -0.075595 0.001820	0.357937
0.089350 -0.001000 -0.076109 0.001861	0.356872
0.090454 -0.001000 -0.076280 0.001856	0.356505
0.090645 -0.001000 -0.076309 0.001860	0.356415
0.091874 -0.001000 -0.076498 0.001825	0.355834
0.094563 -0.001000 -0.076910 0.001732	0.354572
0.098387 -0.001000 -0.077491 0.001796	0.353508
0.098455 -0.001000 -0.077501 0.001797	0.353490
0.098461 -0.001000 -0.077502 0.001797	0.353487
0.098528 -0.001000 -0.077512 0.001799	0.353473
0.102703 -0.001000 -0.078140 0.001843	0.352556
0.103864 -0.001000 -0.078313 0.001852	0.352305
0.106852 -0.001000 -0.078758 0.001746	0.351647
0.110561 -0.001000 -0.079305 0.001764	0.350398
0.111814 -0.001000 -0.079489 0.001703	0.350106
0.114415 -0.001000 -0.079869 0.001738	0.349009
0.115616 -0.001000 -0.080044 0.001717	0.348557
0.118937 -0.001000 -0.080523 0.001727	0.347291
0.120407 -0.001000 -0.080736 0.001723	0.346721
0.120599 -0.001000 -0.080763 0.001721	0.346666
0.121872 -0.001000 -0.080945 0.001722	0.346286
0.125866 -0.001000 -0.081515 0.001690	0.345056
0.127093 -0.001000 -0.081688 0.001698	0.344838
0.130116 -0.001000 -0.082114 0.001622	0.344421
0.134025 -0.001000 -0.082660 0.001641	0.343198
0.135487 -0.001000 -0.082864 0.001675	0.342635
0.138515 -0.001000 -0.083281 0.001660	0.341795
0.140812 -0.001000 -0.083598 0.001632	0.340808
0.143680 -0.001000 -0.083988 0.001651	0.340053
0.146078 -0.001000 -0.084315 0.001629	0.339164
0.146889 -0.001000 -0.084425 0.001635	0.338824
0.149435 -0.001000 -0.084767 0.001718	0.338247
0.152928 -0.001000 -0.085235 0.001735	0.337533
0.157218 -0.001000 -0.085803 0.001706	0.336897
0.157558 -0.001000 -0.085848 0.001706	0.336791
0.158375 -0.001000 -0.085955 0.001712	0.336587
0.161317 -0.001000 -0.086341 0.001701	0.335846
0.161623 -0.001000 -0.086381 0.001695	0.335676
0.166065 -0.001000 -0.086958 0.001721	0.334074
0.166137 -0.001000 -0.086967 0.001720	0.334065
0.166940 -0.001000 -0.087071 0.001722	0.333885
0.171022 -0.001000 -0.087595 0.001685	0.333018
0.172458 -0.001000 -0.087778 0.001680	0.332604
0.176877 -0.001000 -0.088338 0.001630	0.331452
0.180279 -0.001000 -0.088764 0.001626	0.330395
0.182727 -0.001000 -0.089070 0.001599	0.329509
0.183731 -0.001000 -0.089195 0.001585	0.329289
0.188552 -0.001000 -0.089790 0.001592	0.328437
0.188944 -0.001000 -0.089839 0.001588	0.328379
0.191205 -0.001000 -0.090114 0.001599	0.327879
0.194457 -0.001000 -0.090511 0.001587	0.327207
0.195709 -0.001000 -0.090663 0.001599	0.326876