TITLE     = "Surface mesh and solution"
VARIABLES = "x"
"y"
"z"
"cfx"
"Cp"
DATASETAUXDATA alpha_deg="  0.0000000E+00"
DATASETAUXDATA beta_deg="  0.0000000E+00"
DATASETAUXDATA bref="  0.7500000"
DATASETAUXDATA cref="   1.000000"
DATASETAUXDATA itranflg="           0"
DATASETAUXDATA ivisc="           2"
DATASETAUXDATA mach="  0.2000000"
DATASETAUXDATA reue_mil="   4.600000"
DATASETAUXDATA sref="  0.7500000"
DATASETAUXDATA tinf_r="   521.0000"
DATASETAUXDATA xmc="  0.0000000E+00"
DATASETAUXDATA ymc="  0.0000000E+00"
DATASETAUXDATA zmc="  0.0000000E+00"
ZONE T="WOLF, INRIA adapt Y=-0.035"
STRANDID=0, SOLUTIONTIME=0
Nodes=2495, Elements=2495, ZONETYPE=FELineSeg
DATAPACKING=POINT
DT=(DOUBLE DOUBLE DOUBLE DOUBLE DOUBLE )
-0.246379 -0.035000 0.042066 0.001068	-0.463401
-0.246362 -0.035000 0.042242 0.001241	-0.493740
-0.246360 -0.035000 0.042264 0.001263	-0.497432
-0.246360 -0.035000 0.042268 0.001267	-0.498150
-0.246358 -0.035000 0.042281 0.001277	-0.500438
-0.246339 -0.035000 0.042459 0.001429	-0.530293
-0.246329 -0.035000 0.042548 0.001490	-0.549187
-0.246317 -0.035000 0.042644 0.001571	-0.570397
-0.246307 -0.035000 0.042723 0.001648	-0.585535
-0.246297 -0.035000 0.042797 0.001769	-0.599768
-0.246292 -0.035000 0.042836 0.001816	-0.607265
-0.246279 -0.035000 0.042931 0.001926	-0.626985
-0.246268 -0.035000 0.043006 0.002034	-0.643141
-0.246263 -0.035000 0.043040 0.002056	-0.649943
-0.246242 -0.035000 0.043168 0.002088	-0.672185
-0.246238 -0.035000 0.043195 0.002095	-0.676386
-0.246223 -0.035000 0.043288 0.002103	-0.689473
-0.246210 -0.035000 0.043362 0.002277	-0.706207
-0.246202 -0.035000 0.043412 0.002402	-0.717251
-0.246189 -0.035000 0.043485 0.002420	-0.734054
-0.246180 -0.035000 0.043529 0.002446	-0.744081
-0.246160 -0.035000 0.043638 0.002563	-0.761749
-0.246156 -0.035000 0.043658 0.002574	-0.764967
-0.246152 -0.035000 0.043678 0.002594	-0.768589
-0.246133 -0.035000 0.043777 0.002706	-0.787223
-0.246123 -0.035000 0.043828 0.002760	-0.796745
-0.246121 -0.035000 0.043838 0.002772	-0.797980
-0.246111 -0.035000 0.043882 0.002823	-0.807171
-0.246086 -0.035000 0.044002 0.002961	-0.830808
-0.246079 -0.035000 0.044033 0.002998	-0.835744
-0.246051 -0.035000 0.044160 0.003110	-0.858336
-0.246044 -0.035000 0.044187 0.003146	-0.863354
-0.246019 -0.035000 0.044295 0.003258	-0.883880
-0.246007 -0.035000 0.044347 0.003302	-0.896116
-0.245986 -0.035000 0.044434 0.003405	-0.914436
-0.245968 -0.035000 0.044505 0.003466	-0.927012
-0.245955 -0.035000 0.044556 0.003524	-0.936438
-0.245941 -0.035000 0.044612 0.003547	-0.946876
-0.245921 -0.035000 0.044689 0.003628	-0.959517
-0.245891 -0.035000 0.044800 0.003693	-0.983020
-0.245887 -0.035000 0.044814 0.003697	-0.986243
-0.245884 -0.035000 0.044824 0.003716	-0.988055
-0.245859 -0.035000 0.044915 0.003820	-1.002760
-0.245856 -0.035000 0.044927 0.003834	-1.004699
-0.245855 -0.035000 0.044929 0.003839	-1.005119
-0.245827 -0.035000 0.045029 0.004014	-1.023225
-0.245801 -0.035000 0.045117 0.004136	-1.040283
-0.245792 -0.035000 0.045147 0.004162	-1.045842
-0.245781 -0.035000 0.045182 0.004182	-1.053198
-0.245753 -0.035000 0.045275 0.004224	-1.070837
-0.245726 -0.035000 0.045363 0.004313	-1.084601
-0.245713 -0.035000 0.045405 0.004356	-1.091040
-0.245704 -0.035000 0.045431 0.004408	-1.094685
-0.245681 -0.035000 0.045505 0.004514	-1.107662
-0.245660 -0.035000 0.045570 0.004573	-1.119912
-0.245655 -0.035000 0.045585 0.004579	-1.122763
-0.245651 -0.035000 0.045597 0.004601	-1.125324
-0.245636 -0.035000 0.045640 0.004571	-1.134608
-0.245614 -0.035000 0.045709 0.004592	-1.148732
-0.245595 -0.035000 0.045763 0.004746	-1.158146
-0.245578 -0.035000 0.045815 0.004792	-1.167002
-0.245535 -0.035000 0.045935 0.004883	-1.187606
-0.245533 -0.035000 0.045941 0.004888	-1.188489
-0.245488 -0.035000 0.046067 0.004988	-1.211878
-0.245475 -0.035000 0.046103 0.005068	-1.217696
-0.245438 -0.035000 0.046203 0.005199	-1.234289
-0.245427 -0.035000 0.046231 0.005245	-1.238427
-0.245421 -0.035000 0.046248 0.005267	-1.241899
-0.245378 -0.035000 0.046361 0.005404	-1.266997
-0.245346 -0.035000 0.046441 0.005467	-1.281515
-0.245333 -0.035000 0.046476 0.005494	-1.288700
-0.245322 -0.035000 0.046503 0.005511	-1.293491
-0.245291 -0.035000 0.046581 0.005599	-1.305204
-0.245256 -0.035000 0.046665 0.005595	-1.319695
-0.245253 -0.035000 0.046675 0.005596	-1.321134
-0.245250 -0.035000 0.046682 0.005604	-1.322310
-0.245204 -0.035000 0.046792 0.005716	-1.339197
-0.245181 -0.035000 0.046846 0.005829	-1.347134
-0.245144 -0.035000 0.046934 0.005895	-1.362653
-0.245108 -0.035000 0.047016 0.005955	-1.378642
-0.245076 -0.035000 0.047088 0.006071	-1.389105
-0.245030 -0.035000 0.047190 0.006147	-1.403163
-0.245007 -0.035000 0.047242 0.006214	-1.411383
-0.244968 -0.035000 0.047327 0.006292	-1.425488
-0.244959 -0.035000 0.047347 0.006316	-1.428787
-0.244916 -0.035000 0.047440 0.006308	-1.446614
-0.244910 -0.035000 0.047451 0.006312	-1.448706
-0.244862 -0.035000 0.047552 0.006444	-1.470286
-0.244858 -0.035000 0.047560 0.006460	-1.472021
-0.244846 -0.035000 0.047585 0.006486	-1.476170
-0.244814 -0.035000 0.047651 0.006578	-1.487601
-0.244799 -0.035000 0.047682 0.006591	-1.490766
-0.244777 -0.035000 0.047727 0.006584	-1.495436
-0.244754 -0.035000 0.047772 0.006670	-1.499925
-0.244729 -0.035000 0.047822 0.006727	-1.505853
-0.244686 -0.035000 0.047908 0.006816	-1.519564
-0.244683 -0.035000 0.047913 0.006824	-1.520158
-0.244631 -0.035000 0.048014 0.006923	-1.533844
-0.244596 -0.035000 0.048081 0.006993	-1.544227
-0.244566 -0.035000 0.048139 0.007066	-1.552783
-0.244543 -0.035000 0.048181 0.007039	-1.561511
-0.244500 -0.035000 0.048261 0.007118	-1.575986
-0.244444 -0.035000 0.048364 0.007282	-1.586933
-0.244437 -0.035000 0.048378 0.007291	-1.588451
-0.244431 -0.035000 0.048388 0.007306	-1.589261
-0.244404 -0.035000 0.048437 0.007376	-1.596662
-0.244362 -0.035000 0.048512 0.007479	-1.606478
-0.244357 -0.035000 0.048522 0.007474	-1.608234
-0.244345 -0.035000 0.048542 0.007508	-1.609811
-0.244281 -0.035000 0.048654 0.007587	-1.622138
-0.244263 -0.035000 0.048685 0.007582	-1.626110
-0.244221 -0.035000 0.048758 0.007594	-1.634462
-0.244203 -0.035000 0.048789 0.007695	-1.638007
-0.244167 -0.035000 0.048850 0.007818	-1.645700
-0.244141 -0.035000 0.048894 0.007805	-1.651963
-0.244096 -0.035000 0.048970 0.007836	-1.666715
-0.244082 -0.035000 0.048994 0.007852	-1.670561
-0.244071 -0.035000 0.049011 0.007900	-1.673837
-0.244014 -0.035000 0.049106 0.007984	-1.688887
-0.243997 -0.035000 0.049132 0.007991	-1.691984
-0.243946 -0.035000 0.049216 0.008023	-1.701162
-0.243920 -0.035000 0.049257 0.008034	-1.706642
-0.243881 -0.035000 0.049318 0.007992	-1.715700
-0.243867 -0.035000 0.049341 0.008036	-1.718788
-0.243809 -0.035000 0.049431 0.007961	-1.728719
-0.243792 -0.035000 0.049458 0.007956	-1.731269
-0.243775 -0.035000 0.049484 0.007996	-1.732979
-0.243713 -0.035000 0.049579 0.008129	-1.737321
-0.243671 -0.035000 0.049643 0.008309	-1.744764
-0.243629 -0.035000 0.049706 0.008444	-1.753339
-0.243604 -0.035000 0.049744 0.008450	-1.758631
-0.243562 -0.035000 0.049807 0.008485	-1.767408
-0.243545 -0.035000 0.049831 0.008491	-1.770765
-0.243536 -0.035000 0.049844 0.008498	-1.772529
-0.243487 -0.035000 0.049917 0.008520	-1.781907
-0.243445 -0.035000 0.049977 0.008550	-1.789281
-0.243432 -0.035000 0.049996 0.008546	-1.791534
-0.243423 -0.035000 0.050009 0.008559	-1.792817
-0.243403 -0.035000 0.050038 0.008579	-1.794676
-0.243353 -0.035000 0.050109 0.008628	-1.799578
-0.243336 -0.035000 0.050133 0.008661	-1.800877
-0.243301 -0.035000 0.050183 0.008768	-1.804824
-0.243278 -0.035000 0.050214 0.008841	-1.807333
-0.243251 -0.035000 0.050252 0.008865	-1.812749
-0.243212 -0.035000 0.050306 0.008904	-1.820487
-0.243186 -0.035000 0.050343 0.008915	-1.824865
-0.243144 -0.035000 0.050400 0.008958	-1.831230
-0.243097 -0.035000 0.050464 0.008969	-1.837048
-0.243064 -0.035000 0.050508 0.008984	-1.840389
-0.243010 -0.035000 0.050580 0.009037	-1.846634
-0.242973 -0.035000 0.050630 0.009075	-1.851694
-0.242950 -0.035000 0.050661 0.009130	-1.854105
-0.242858 -0.035000 0.050780 0.009082	-1.862274
-0.242845 -0.035000 0.050798 0.009059	-1.863040
-0.242832 -0.035000 0.050814 0.009064	-1.864178
-0.242770 -0.035000 0.050895 0.009100	-1.871117
-0.242721 -0.035000 0.050957 0.009155	-1.879591
-0.242674 -0.035000 0.051016 0.009253	-1.887371
-0.242624 -0.035000 0.051079 0.009313	-1.893083
-0.242589 -0.035000 0.051123 0.009383	-1.897996
-0.242546 -0.035000 0.051176 0.009419	-1.902276
-0.242521 -0.035000 0.051207 0.009430	-1.904392
-0.242498 -0.035000 0.051236 0.009472	-1.906143
-0.242428 -0.035000 0.051321 0.009591	-1.909947
-0.242387 -0.035000 0.051371 0.009659	-1.913931
-0.242357 -0.035000 0.051406 0.009682	-1.916555
-0.242335 -0.035000 0.051433 0.009672	-1.918823
-0.242276 -0.035000 0.051504 0.009762	-1.924420
-0.242274 -0.035000 0.051505 0.009762	-1.924504
-0.242210 -0.035000 0.051581 0.009673	-1.929796
-0.242183 -0.035000 0.051613 0.009695	-1.932471
-0.242148 -0.035000 0.051654 0.009699	-1.934894
-0.242099 -0.035000 0.051711 0.009685	-1.941371
-0.242095 -0.035000 0.051716 0.009686	-1.941903
-0.242091 -0.035000 0.051721 0.009689	-1.942531
-0.242039 -0.035000 0.051780 0.009707	-1.949325
-0.242003 -0.035000 0.051821 0.009772	-1.950697
-0.241959 -0.035000 0.051871 0.009828	-1.951997
-0.241911 -0.035000 0.051925 0.009806	-1.955199
-0.241845 -0.035000 0.051999 0.009796	-1.960537
-0.241809 -0.035000 0.052040 0.009797	-1.963780
-0.241744 -0.035000 0.052112 0.009794	-1.967761
-0.241734 -0.035000 0.052123 0.009796	-1.968105
-0.241667 -0.035000 0.052196 0.009762	-1.970570
-0.241608 -0.035000 0.052260 0.009812	-1.974147
-0.241591 -0.035000 0.052278 0.009842	-1.975325
-0.241544 -0.035000 0.052330 0.009886	-1.981133
-0.241535 -0.035000 0.052339 0.009895	-1.982082
-0.241468 -0.035000 0.052410 0.009967	-1.985600
-0.241456 -0.035000 0.052423 0.009977	-1.986266
-0.241440 -0.035000 0.052441 0.009979	-1.987011
-0.241360 -0.035000 0.052524 0.009929	-1.990022
-0.241329 -0.035000 0.052557 0.009942	-1.990539
-0.241261 -0.035000 0.052628 0.009940	-1.991640
-0.241235 -0.035000 0.052655 0.009978	-1.992797
-0.241207 -0.035000 0.052683 0.009973	-1.993362
-0.241135 -0.035000 0.052757 0.010075	-1.996317
-0.241060 -0.035000 0.052834 0.010173	-2.000117
-0.241027 -0.035000 0.052867 0.010192	-2.002048
-0.241007 -0.035000 0.052888 0.010197	-2.003130
-0.240919 -0.035000 0.052975 0.010207	-2.007909
-0.240847 -0.035000 0.053047 0.010164	-2.011511
-0.240826 -0.035000 0.053067 0.010175	-2.012410
-0.240816 -0.035000 0.053077 0.010162	-2.012744
-0.240713 -0.035000 0.053178 0.010231	-2.012963
-0.240711 -0.035000 0.053180 0.010235	-2.012994
-0.240709 -0.035000 0.053182 0.010236	-2.013028
-0.240704 -0.035000 0.053187 0.010236	-2.012952
-0.240609 -0.035000 0.053278 0.010234	-2.013521
-0.240564 -0.035000 0.053321 0.010221	-2.015538
-0.240524 -0.035000 0.053359 0.010223	-2.017850
-0.240472 -0.035000 0.053408 0.010185	-2.019541
-0.240427 -0.035000 0.053451 0.010182	-2.021269
-0.240327 -0.035000 0.053545 0.010287	-2.027619
-0.240295 -0.035000 0.053575 0.010303	-2.028320
-0.240185 -0.035000 0.053676 0.010320	-2.029754
-0.240144 -0.035000 0.053714 0.010345	-2.030241
-0.240094 -0.035000 0.053760 0.010405	-2.030756
-0.240024 -0.035000 0.053823 0.010500	-2.031072
-0.239928 -0.035000 0.053909 0.010520	-2.031287
-0.239915 -0.035000 0.053921 0.010524	-2.031289
-0.239910 -0.035000 0.053925 0.010519	-2.031319
-0.239801 -0.035000 0.054022 0.010481	-2.031581
-0.239760 -0.035000 0.054058 0.010509	-2.032119
-0.239698 -0.035000 0.054113 0.010526	-2.033505
-0.239623 -0.035000 0.054178 0.010576	-2.034339
-0.239609 -0.035000 0.054190 0.010578	-2.034375
-0.239537 -0.035000 0.054253 0.010551	-2.035612
-0.239482 -0.035000 0.054300 0.010585	-2.037140
-0.239433 -0.035000 0.054341 0.010569	-2.038436
-0.239382 -0.035000 0.054385 0.010583	-2.038574
-0.239324 -0.035000 0.054434 0.010551	-2.038062
-0.239267 -0.035000 0.054482 0.010512	-2.037173
-0.239217 -0.035000 0.054524 0.010511	-2.037139
-0.239129 -0.035000 0.054597 0.010437	-2.035779
-0.239104 -0.035000 0.054618 0.010431	-2.034630
-0.239044 -0.035000 0.054668 0.010462	-2.033901
-0.238993 -0.035000 0.054709 0.010496	-2.033710
-0.238923 -0.035000 0.054766 0.010508	-2.034689
-0.238861 -0.035000 0.054817 0.010530	-2.034931
-0.238798 -0.035000 0.054868 0.010546	-2.035127
-0.238716 -0.035000 0.054933 0.010627	-2.035603
-0.238688 -0.035000 0.054956 0.010634	-2.036602
-0.238627 -0.035000 0.055004 0.010643	-2.035856
-0.238568 -0.035000 0.055052 0.010628	-2.035031
-0.238542 -0.035000 0.055072 0.010621	-2.035242
-0.238451 -0.035000 0.055144 0.010580	-2.035548
-0.238414 -0.035000 0.055172 0.010553	-2.035091
-0.238328 -0.035000 0.055239 0.010517	-2.032451
-0.238232 -0.035000 0.055313 0.010476	-2.030564
-0.238186 -0.035000 0.055349 0.010483	-2.029965
-0.238134 -0.035000 0.055388 0.010493	-2.030520
-0.238040 -0.035000 0.055460 0.010504	-2.030320
-0.237911 -0.035000 0.055557 0.010501	-2.028648
-0.237896 -0.035000 0.055568 0.010522	-2.028581
-0.237866 -0.035000 0.055590 0.010524	-2.028938
-0.237763 -0.035000 0.055667 0.010576	-2.029331
-0.237707 -0.035000 0.055708 0.010645	-2.027662
-0.237618 -0.035000 0.055774 0.010720	-2.026291
-0.237572 -0.035000 0.055807 0.010717	-2.026359
-0.237542 -0.035000 0.055829 0.010707	-2.026191
-0.237433 -0.035000 0.055908 0.010680	-2.022686
-0.237386 -0.035000 0.055942 0.010663	-2.021562
-0.237299 -0.035000 0.056004 0.010636	-2.020386
-0.237224 -0.035000 0.056058 0.010595	-2.019068
-0.237162 -0.035000 0.056102 0.010588	-2.019584
-0.237054 -0.035000 0.056178 0.010588	-2.017977
-0.237032 -0.035000 0.056194 0.010598	-2.017068
-0.236980 -0.035000 0.056230 0.010566	-2.015580
-0.236906 -0.035000 0.056282 0.010545	-2.013677
-0.236868 -0.035000 0.056308 0.010557	-2.013139
-0.236784 -0.035000 0.056366 0.010687	-2.013250
-0.236714 -0.035000 0.056414 0.010732	-2.013095
-0.236664 -0.035000 0.056448 0.010699	-2.013011
-0.236601 -0.035000 0.056491 0.010761	-2.011352
-0.236569 -0.035000 0.056513 0.010775	-2.010539
-0.236487 -0.035000 0.056569 0.010682	-2.009725
-0.236424 -0.035000 0.056611 0.010671	-2.009433
-0.236370 -0.035000 0.056648 0.010665	-2.008400
-0.236332 -0.035000 0.056673 0.010649	-2.007875
-0.236219 -0.035000 0.056748 0.010598	-2.006417
-0.236177 -0.035000 0.056775 0.010591	-2.005074
-0.236062 -0.035000 0.056851 0.010583	-2.003671
-0.236027 -0.035000 0.056874 0.010585	-2.004607
-0.235922 -0.035000 0.056943 0.010586	-2.001472
-0.235910 -0.035000 0.056950 0.010572	-2.001027
-0.235895 -0.035000 0.056960 0.010566	-2.000447
-0.235807 -0.035000 0.057017 0.010573	-1.997506
-0.235778 -0.035000 0.057035 0.010583	-1.997164
-0.235701 -0.035000 0.057085 0.010590	-1.996385
-0.235674 -0.035000 0.057102 0.010587	-1.996250
-0.235609 -0.035000 0.057144 0.010578	-1.995931
-0.235558 -0.035000 0.057176 0.010567	-1.995782
-0.235458 -0.035000 0.057239 0.010610	-1.994920
-0.235431 -0.035000 0.057256 0.010642	-1.994788
-0.235395 -0.035000 0.057278 0.010618	-1.993228
-0.235261 -0.035000 0.057363 0.010568	-1.987155
-0.235205 -0.035000 0.057397 0.010553	-1.985286
-0.235096 -0.035000 0.057464 0.010598	-1.983190
-0.234968 -0.035000 0.057543 0.010670	-1.981332
-0.234964 -0.035000 0.057546 0.010669	-1.981264
-0.234940 -0.035000 0.057560 0.010658	-1.981074
-0.234806 -0.035000 0.057641 0.010603	-1.979896
-0.234784 -0.035000 0.057654 0.010582	-1.980316
-0.234703 -0.035000 0.057703 0.010558	-1.979165
-0.234616 -0.035000 0.057755 0.010523	-1.978318
-0.234595 -0.035000 0.057768 0.010541	-1.978470
-0.234447 -0.035000 0.057855 0.010539	-1.974526
-0.234386 -0.035000 0.057892 0.010470	-1.971635
-0.234236 -0.035000 0.057979 0.010471	-1.966830
-0.234187 -0.035000 0.058008 0.010464	-1.964804
-0.234063 -0.035000 0.058079 0.010442	-1.961343
-0.233995 -0.035000 0.058119 0.010452	-1.959140
-0.233964 -0.035000 0.058137 0.010443	-1.958955
-0.233830 -0.035000 0.058213 0.010498	-1.957116
-0.233736 -0.035000 0.058266 0.010468	-1.954233
-0.233664 -0.035000 0.058307 0.010457	-1.951574
-0.233572 -0.035000 0.058359 0.010463	-1.948627
-0.233517 -0.035000 0.058390 0.010479	-1.946730
-0.233375 -0.035000 0.058469 0.010479	-1.944198
-0.233351 -0.035000 0.058482 0.010467	-1.944094
-0.233326 -0.035000 0.058496 0.010463	-1.943910
-0.233173 -0.035000 0.058580 0.010427	-1.940194
-0.233091 -0.035000 0.058625 0.010385	-1.938143
-0.232999 -0.035000 0.058674 0.010390	-1.936060
-0.232895 -0.035000 0.058731 0.010393	-1.932386
-0.232815 -0.035000 0.058774 0.010353	-1.929941
-0.232714 -0.035000 0.058828 0.010287	-1.925664
-0.232620 -0.035000 0.058878 0.010245	-1.923246
-0.232533 -0.035000 0.058924 0.010281	-1.920670
-0.232483 -0.035000 0.058950 0.010295	-1.919084
-0.232374 -0.035000 0.059008 0.010287	-1.915635
-0.232226 -0.035000 0.059085 0.010245	-1.911964
-0.232209 -0.035000 0.059094 0.010241	-1.911422
-0.232193 -0.035000 0.059102 0.010234	-1.910984
-0.232056 -0.035000 0.059173 0.010243	-1.906847
-0.231984 -0.035000 0.059210 0.010269	-1.906035
-0.231864 -0.035000 0.059271 0.010315	-1.904383
-0.231788 -0.035000 0.059310 0.010283	-1.902790
-0.231708 -0.035000 0.059351 0.010248	-1.901096
-0.231617 -0.035000 0.059397 0.010208	-1.898259
-0.231531 -0.035000 0.059439 0.010212	-1.896162
-0.231424 -0.035000 0.059493 0.010138	-1.893922
-0.231366 -0.035000 0.059522 0.010120	-1.891953
-0.231221 -0.035000 0.059594 0.010157	-1.885745
-0.231101 -0.035000 0.059653 0.010158	-1.879607
-0.230962 -0.035000 0.059721 0.010189	-1.871787
-0.230898 -0.035000 0.059752 0.010202	-1.868624
-0.230843 -0.035000 0.059779 0.010186	-1.867191
-0.230731 -0.035000 0.059833 0.010207	-1.865040
-0.230630 -0.035000 0.059881 0.010145	-1.865542
-0.230592 -0.035000 0.059900 0.010124	-1.865432
-0.230487 -0.035000 0.059950 0.010090	-1.865428
-0.230339 -0.035000 0.060020 0.010103	-1.862966
-0.230314 -0.035000 0.060032 0.010117	-1.862361
-0.230265 -0.035000 0.060055 0.010086	-1.860594
-0.230165 -0.035000 0.060102 0.010032	-1.856975
-0.230118 -0.035000 0.060124 0.010003	-1.856153
-0.230065 -0.035000 0.060148 0.009962	-1.854989
-0.229903 -0.035000 0.060224 0.009919	-1.851810
-0.229777 -0.035000 0.060282 0.009971	-1.845816
-0.229673 -0.035000 0.060330 0.010025	-1.841322
-0.229596 -0.035000 0.060365 0.010021	-1.837982
-0.229419 -0.035000 0.060446 0.010036	-1.831700
-0.229341 -0.035000 0.060481 0.010009	-1.829186
-0.229171 -0.035000 0.060557 0.010032	-1.825454
-0.229043 -0.035000 0.060614 0.010009	-1.822706
-0.228912 -0.035000 0.060673 0.010020	-1.820415
-0.228750 -0.035000 0.060744 0.010019	-1.818780
-0.228683 -0.035000 0.060773 0.010039	-1.817406
-0.228594 -0.035000 0.060812 0.009956	-1.815874
-0.228499 -0.035000 0.060853 0.009864	-1.813264
-0.228426 -0.035000 0.060884 0.009798	-1.811673
-0.228298 -0.035000 0.060940 0.009650	-1.808546
-0.228180 -0.035000 0.060990 0.009663	-1.805957
-0.228074 -0.035000 0.061036 0.009683	-1.802255
-0.228026 -0.035000 0.061056 0.009676	-1.801598
-0.227798 -0.035000 0.061152 0.009785	-1.795924
-0.227750 -0.035000 0.061173 0.009812	-1.794590
-0.227677 -0.035000 0.061203 0.009774	-1.793378
-0.227483 -0.035000 0.061284 0.009732	-1.787224
-0.227242 -0.035000 0.061383 0.009605	-1.782405
-0.227230 -0.035000 0.061389 0.009601	-1.781974
-0.227204 -0.035000 0.061399 0.009597	-1.781319
-0.226967 -0.035000 0.061496 0.009528	-1.774471
-0.226872 -0.035000 0.061534 0.009522	-1.771849
-0.226627 -0.035000 0.061632 0.009523	-1.763624
-0.226552 -0.035000 0.061662 0.009545	-1.761739
-0.226361 -0.035000 0.061738 0.009485	-1.758264
-0.226288 -0.035000 0.061767 0.009465	-1.756318
-0.226096 -0.035000 0.061842 0.009474	-1.752435
-0.225997 -0.035000 0.061881 0.009485	-1.749141
-0.225853 -0.035000 0.061937 0.009511	-1.743550
-0.225695 -0.035000 0.061998 0.009549	-1.738827
-0.225657 -0.035000 0.062013 0.009557	-1.737345
-0.225448 -0.035000 0.062093 0.009621	-1.730681
-0.225424 -0.035000 0.062102 0.009626	-1.730072
-0.225305 -0.035000 0.062146 0.009649	-1.728579
-0.225193 -0.035000 0.062189 0.009668	-1.726602
-0.225162 -0.035000 0.062201 0.009675	-1.726229
-0.224970 -0.035000 0.062272 0.009624	-1.723758
-0.224908 -0.035000 0.062295 0.009564	-1.723425
-0.224755 -0.035000 0.062352 0.009570	-1.721823
-0.224706 -0.035000 0.062370 0.009561	-1.721103
-0.224482 -0.035000 0.062452 0.009419	-1.714421
-0.224458 -0.035000 0.062461 0.009409	-1.713609
-0.224273 -0.035000 0.062528 0.009352	-1.710970
-0.224213 -0.035000 0.062550 0.009333	-1.709942
-0.224206 -0.035000 0.062552 0.009331	-1.709827
-0.223943 -0.035000 0.062647 0.009208	-1.702979
-0.223897 -0.035000 0.062663 0.009202	-1.701136
-0.223804 -0.035000 0.062696 0.009177	-1.697944
-0.223556 -0.035000 0.062784 0.009136	-1.688928
-0.223428 -0.035000 0.062829 0.009159	-1.686577
-0.223291 -0.035000 0.062877 0.009180	-1.683802
-0.223075 -0.035000 0.062951 0.009174	-1.678937
-0.223002 -0.035000 0.062977 0.009184	-1.677496
-0.222726 -0.035000 0.063071 0.009080	-1.670211
-0.222694 -0.035000 0.063082 0.009069	-1.669415
-0.222678 -0.035000 0.063088 0.009068	-1.668991
-0.222396 -0.035000 0.063184 0.009090	-1.662113
-0.222203 -0.035000 0.063248 0.009143	-1.655913
-0.222076 -0.035000 0.063291 0.009157	-1.652096
-0.221818 -0.035000 0.063376 0.009196	-1.643568
-0.221745 -0.035000 0.063400 0.009203	-1.641224
-0.221484 -0.035000 0.063486 0.009132	-1.635647
-0.221441 -0.035000 0.063500 0.009114	-1.634784
-0.221325 -0.035000 0.063538 0.009131	-1.633093
-0.221164 -0.035000 0.063590 0.009157	-1.630927
-0.221081 -0.035000 0.063616 0.009184	-1.629570
-0.220872 -0.035000 0.063683 0.009219	-1.625309
-0.220690 -0.035000 0.063741 0.009224	-1.623701
-0.220626 -0.035000 0.063761 0.009234	-1.622558
-0.220432 -0.035000 0.063822 0.009275	-1.616840
-0.220341 -0.035000 0.063851 0.009277	-1.615056
-0.220176 -0.035000 0.063902 0.009292	-1.611214
-0.220115 -0.035000 0.063921 0.009274	-1.609889
-0.219879 -0.035000 0.063994 0.009246	-1.605271
-0.219871 -0.035000 0.063996 0.009246	-1.605177
-0.219630 -0.035000 0.064070 0.009142	-1.602334
-0.219567 -0.035000 0.064089 0.009094	-1.601325
-0.219372 -0.035000 0.064148 0.009139	-1.600523
-0.219207 -0.035000 0.064198 0.009109	-1.598722
-0.219114 -0.035000 0.064225 0.009075	-1.596254
-0.218891 -0.035000 0.064291 0.008891	-1.589067
-0.218832 -0.035000 0.064309 0.008839	-1.587176
-0.218807 -0.035000 0.064316 0.008836	-1.586317
-0.218705 -0.035000 0.064346 0.008805	-1.583738
-0.218434 -0.035000 0.064425 0.008709	-1.576928
-0.218347 -0.035000 0.064451 0.008678	-1.574852
-0.218089 -0.035000 0.064525 0.008650	-1.567539
-0.217824 -0.035000 0.064601 0.008567	-1.561794
-0.217748 -0.035000 0.064623 0.008551	-1.560739
-0.217523 -0.035000 0.064687 0.008502	-1.557344
-0.217416 -0.035000 0.064717 0.008481	-1.555643
-0.217385 -0.035000 0.064726 0.008475	-1.554896
-0.217089 -0.035000 0.064809 0.008518	-1.547267
-0.216991 -0.035000 0.064836 0.008508	-1.545252
-0.216784 -0.035000 0.064893 0.008517	-1.542795
-0.216669 -0.035000 0.064925 0.008544	-1.541343
-0.216444 -0.035000 0.064987 0.008590	-1.537255
-0.216368 -0.035000 0.065007 0.008635	-1.536254
-0.216197 -0.035000 0.065054 0.008634	-1.532883
-0.215840 -0.035000 0.065150 0.008557	-1.525633
-0.215834 -0.035000 0.065151 0.008555	-1.525469
-0.215826 -0.035000 0.065153 0.008554	-1.525338
-0.215492 -0.035000 0.065242 0.008544	-1.516953
-0.215177 -0.035000 0.065324 0.008487	-1.511437
-0.215071 -0.035000 0.065352 0.008462	-1.509284
-0.214947 -0.035000 0.065384 0.008463	-1.507788
-0.214631 -0.035000 0.065465 0.008496	-1.502644
-0.214290 -0.035000 0.065552 0.008464	-1.494998
-0.214225 -0.035000 0.065568 0.008456	-1.493249
-0.214178 -0.035000 0.065580 0.008446	-1.492583
-0.213725 -0.035000 0.065694 0.008380	-1.486837
-0.213637 -0.035000 0.065715 0.008381	-1.486305
-0.213276 -0.035000 0.065804 0.008280	-1.482649
-0.213175 -0.035000 0.065829 0.008270	-1.480956
-0.213104 -0.035000 0.065846 0.008217	-1.479930
-0.212774 -0.035000 0.065926 0.008095	-1.476095
-0.212633 -0.035000 0.065959 0.008055	-1.474017
-0.212410 -0.035000 0.066013 0.008068	-1.470214
-0.212271 -0.035000 0.066046 0.008068	-1.467891
-0.211875 -0.035000 0.066139 0.008078	-1.460776
-0.211828 -0.035000 0.066150 0.008075	-1.460055
-0.211760 -0.035000 0.066165 0.008085	-1.458852
-0.211442 -0.035000 0.066239 0.008129	-1.452155
-0.211214 -0.035000 0.066292 0.008083	-1.447167
-0.211046 -0.035000 0.066330 0.008071	-1.444297
-0.210850 -0.035000 0.066374 0.008076	-1.441692
-0.210579 -0.035000 0.066435 0.007995	-1.437273
-0.210467 -0.035000 0.066461 0.007999	-1.434987
-0.210093 -0.035000 0.066544 0.007966	-1.429850
-0.210063 -0.035000 0.066550 0.007967	-1.429420
-0.209670 -0.035000 0.066636 0.007900	-1.424568
-0.209614 -0.035000 0.066648 0.007895	-1.423835
-0.209329 -0.035000 0.066710 0.007862	-1.418931
-0.209008 -0.035000 0.066778 0.007860	-1.415297
-0.208891 -0.035000 0.066803 0.007849	-1.413495
-0.208743 -0.035000 0.066834 0.007816	-1.411770
-0.208467 -0.035000 0.066893 0.007817	-1.405690
-0.208078 -0.035000 0.066973 0.007722	-1.398220
-0.208046 -0.035000 0.066980 0.007725	-1.397552
-0.207701 -0.035000 0.067051 0.007766	-1.389158
-0.207523 -0.035000 0.067087 0.007778	-1.386019
-0.207159 -0.035000 0.067161 0.007782	-1.380578
-0.207079 -0.035000 0.067177 0.007777	-1.379733
-0.206696 -0.035000 0.067253 0.007745	-1.375998
-0.206350 -0.035000 0.067321 0.007741	-1.371952
-0.206145 -0.035000 0.067362 0.007769	-1.368582
-0.206012 -0.035000 0.067388 0.007787	-1.365898
-0.205588 -0.035000 0.067470 0.007764	-1.357052
-0.205492 -0.035000 0.067488 0.007742	-1.355408
-0.205131 -0.035000 0.067556 0.007797	-1.352716
-0.205015 -0.035000 0.067578 0.007776	-1.351717
-0.204680 -0.035000 0.067641 0.007620	-1.348029
-0.204379 -0.035000 0.067696 0.007578	-1.344255
-0.204206 -0.035000 0.067728 0.007579	-1.342253
-0.204069 -0.035000 0.067753 0.007533	-1.341897
-0.203670 -0.035000 0.067826 0.007458	-1.337533
-0.203478 -0.035000 0.067860 0.007426	-1.334923
-0.202928 -0.035000 0.067958 0.007392	-1.326645
-0.202895 -0.035000 0.067964 0.007389	-1.326185
-0.202833 -0.035000 0.067975 0.007391	-1.325452
-0.202396 -0.035000 0.068051 0.007401	-1.320277
-0.202214 -0.035000 0.068083 0.007473	-1.318192
-0.201966 -0.035000 0.068125 0.007546	-1.314493
-0.201594 -0.035000 0.068189 0.007589	-1.307976
-0.201516 -0.035000 0.068202 0.007588	-1.306899
-0.201182 -0.035000 0.068258 0.007511	-1.302674
-0.200943 -0.035000 0.068298 0.007565	-1.300381
-0.200701 -0.035000 0.068338 0.007582	-1.298133
-0.200356 -0.035000 0.068394 0.007587	-1.293741
-0.200290 -0.035000 0.068405 0.007575	-1.292851
-0.199842 -0.035000 0.068477 0.007498	-1.287605
-0.199648 -0.035000 0.068508 0.007470	-1.285508
-0.199216 -0.035000 0.068576 0.007328	-1.280926
-0.198951 -0.035000 0.068617 0.007304	-1.278168
-0.198557 -0.035000 0.068678 0.007300	-1.272910
-0.198129 -0.035000 0.068743 0.007371	-1.266483
-0.197894 -0.035000 0.068779 0.007413	-1.263458
-0.197334 -0.035000 0.068862 0.007437	-1.256007
-0.197273 -0.035000 0.068872 0.007433	-1.255164
-0.197252 -0.035000 0.068875 0.007434	-1.254984
-0.196615 -0.035000 0.068968 0.007554	-1.247830
-0.196510 -0.035000 0.068983 0.007556	-1.246514
-0.196011 -0.035000 0.069054 0.007513	-1.241833
-0.195869 -0.035000 0.069074 0.007478	-1.240378
-0.195814 -0.035000 0.069082 0.007475	-1.240035
-0.195291 -0.035000 0.069155 0.007378	-1.236825
-0.195205 -0.035000 0.069167 0.007369	-1.236233
-0.194906 -0.035000 0.069208 0.007330	-1.234002
-0.194665 -0.035000 0.069241 0.007296	-1.231794
-0.194624 -0.035000 0.069247 0.007291	-1.231431
-0.194451 -0.035000 0.069270 0.007258	-1.230091
-0.193960 -0.035000 0.069335 0.007161	-1.225079
-0.193668 -0.035000 0.069374 0.007099	-1.221682
-0.193367 -0.035000 0.069413 0.007078	-1.217729
-0.192875 -0.035000 0.069476 0.007050	-1.210045
-0.192714 -0.035000 0.069497 0.007034	-1.207813
-0.191970 -0.035000 0.069591 0.007004	-1.201220
-0.191907 -0.035000 0.069599 0.007008	-1.200506
-0.191796 -0.035000 0.069613 0.007018	-1.199686
-0.191136 -0.035000 0.069694 0.007008	-1.194269
-0.190579 -0.035000 0.069762 0.007060	-1.190952
-0.190297 -0.035000 0.069795 0.007080	-1.188194
-0.189779 -0.035000 0.069856 0.007174	-1.182074
-0.189370 -0.035000 0.069904 0.007229	-1.176752
-0.189242 -0.035000 0.069918 0.007210	-1.175116
-0.188374 -0.035000 0.070016 0.007056	-1.166802
-0.188060 -0.035000 0.070050 0.006966	-1.164521
-0.187531 -0.035000 0.070108 0.006781	-1.161110
-0.186949 -0.035000 0.070169 0.006680	-1.157426
-0.186728 -0.035000 0.070193 0.006679	-1.155934
-0.186524 -0.035000 0.070213 0.006668	-1.154464
-0.185824 -0.035000 0.070285 0.006695	-1.150185
-0.185051 -0.035000 0.070362 0.006677	-1.140476
-0.184946 -0.035000 0.070373 0.006665	-1.139001
-0.184463 -0.035000 0.070420 0.006636	-1.133338
-0.183903 -0.035000 0.070474 0.006593	-1.126841
-0.183843 -0.035000 0.070480 0.006601	-1.126191
-0.182839 -0.035000 0.070574 0.006529	-1.116353
-0.182745 -0.035000 0.070583 0.006519	-1.115239
-0.182602 -0.035000 0.070596 0.006514	-1.114175
-0.181657 -0.035000 0.070681 0.006533	-1.105727
-0.181379 -0.035000 0.070706 0.006529	-1.103027
-0.180713 -0.035000 0.070763 0.006544	-1.098981
-0.180532 -0.035000 0.070779 0.006570	-1.098165
-0.180167 -0.035000 0.070809 0.006590	-1.095601
-0.179590 -0.035000 0.070858 0.006656	-1.092169
-0.178992 -0.035000 0.070906 0.006657	-1.088693
-0.178589 -0.035000 0.070938 0.006693	-1.086051
-0.177855 -0.035000 0.070995 0.006697	-1.081732
-0.177437 -0.035000 0.071027 0.006673	-1.079513
-0.176610 -0.035000 0.071088 0.006577	-1.074045
-0.176316 -0.035000 0.071110 0.006558	-1.072157
-0.176195 -0.035000 0.071118 0.006555	-1.071446
-0.175133 -0.035000 0.071192 0.006515	-1.065851
-0.174994 -0.035000 0.071201 0.006485	-1.064995
-0.174615 -0.035000 0.071227 0.006445	-1.061045
-0.173997 -0.035000 0.071268 0.006411	-1.054737
-0.173316 -0.035000 0.071311 0.006408	-1.048322
-0.172454 -0.035000 0.071366 0.006468	-1.040640
-0.172316 -0.035000 0.071374 0.006490	-1.039525
-0.171258 -0.035000 0.071438 0.006395	-1.031208
-0.171159 -0.035000 0.071444 0.006404	-1.030424
-0.170184 -0.035000 0.071499 0.006516	-1.024364
-0.169817 -0.035000 0.071519 0.006501	-1.022210
-0.168271 -0.035000 0.071601 0.006578	-1.014647