TITLE     = "Surface mesh and solution"
VARIABLES = "x"
"y"
"z"
"cfx"
"Cp"
ZONE T="CFD++, PW Y=-0.001"
STRANDID=0, SOLUTIONTIME=0
Nodes=609, Elements=608, ZONETYPE=FELineSeg
DATAPACKING=POINT
DT=(DOUBLE DOUBLE DOUBLE DOUBLE DOUBLE )
0.4608131100	-0.0009999500	-0.0455453950	0.0007361336	0.2199276200
0.4658365000	-0.0009999500	-0.0469643590	0.0007200293	0.2243254800
0.4708476100	-0.0009999500	-0.0483838690	0.0007077020	0.2285168600
0.4758426500	-0.0009999500	-0.0498028320	0.0006973175	0.2329142100
0.4808169900	-0.0009999500	-0.0512198510	0.0006891019	0.2371937300
0.4857669200	-0.0009999500	-0.0526338150	0.0006729577	0.2407863300
0.4906922900	-0.0009999500	-0.0540446230	0.0006631105	0.2455829400
0.4955956900	-0.0009999500	-0.0554529470	0.0006576085	0.2496237800
0.5004813100	-0.0009999500	-0.0568599440	0.0006420354	0.2534328100
0.5053554200	-0.0009999500	-0.0582673700	0.0006273104	0.2578232900
0.5102245800	-0.0009999500	-0.0596771200	0.0006136712	0.2616654000
0.5150936800	-0.0009999500	-0.0610905850	0.0005985474	0.2657580100
0.5199637400	-0.0009999500	-0.0625080620	0.0005844080	0.2698212900
0.5248298000	-0.0009999500	-0.0639280970	0.0005709048	0.2738059200
0.5296808500	-0.0009999500	-0.0653474930	0.0005564558	0.2777194400
0.5345013100	-0.0009999500	-0.0667616130	0.0005448377	0.2817513000
0.5392714700	-0.0009999500	-0.0681645870	0.0005370595	0.2858163700
0.5439740400	-0.0009999500	-0.0695512150	0.0005270221	0.2896926700
0.5486020400	-0.0009999500	-0.0709192750	0.0005128980	0.2933487000
0.5531555400	-0.0009999500	-0.0722686280	0.0004996690	0.2972056300
0.5576400200	-0.0009999500	-0.0736007690	0.0004879974	0.3009987500
0.5620678100	-0.0009999500	-0.0749192160	0.0004740354	0.3045002500
0.5664510100	-0.0009999500	-0.0762274940	0.0004606675	0.3081689800
0.5707976200	-0.0009999500	-0.0775278960	0.0004495712	0.3117832500
0.5751144300	-0.0009999500	-0.0788223970	0.0004390082	0.3154758200
0.5794066800	-0.0009999500	-0.0801125170	0.0004286770	0.3190239400
0.5836776500	-0.0009999500	-0.0813992320	0.0004150778	0.3222306100
0.5879309200	-0.0009999500	-0.0826835630	0.0003966026	0.3257650100
0.5921691700	-0.0009999500	-0.0839663000	0.0003898323	0.3299343600
0.5963935300	-0.0009999500	-0.0852477770	0.0003875108	0.3329909400
0.6006036400	-0.0009999500	-0.0865278690	0.0003690582	0.3362555800
0.6047944400	-0.0009999500	-0.0878050180	0.0003543247	0.3403454100
0.6089561600	-0.0009999500	-0.0890761990	0.0003442442	0.3435659700
0.6130751400	-0.0009999500	-0.0903371870	0.0003296971	0.3470036400
0.6171253900	-0.0009999500	-0.0915799360	0.0003161847	0.3503895100
0.6210792700	-0.0009999500	-0.0927957890	0.0003025685	0.3537379200
0.6249116700	-0.0009999500	-0.0939768400	0.0002886099	0.3569624400
0.6285911200	-0.0009999500	-0.0951131210	0.0002737336	0.3600281800
0.6320941400	-0.0009999500	-0.0961970840	0.0002581487	0.3629387600
0.6354241400	-0.0009999500	-0.0972294810	0.0002416308	0.3656768200
0.6386022600	-0.0009999500	-0.0982166010	0.0002235947	0.3683106900
0.6417592200	-0.0009999500	-0.0991988850	0.0002038240	0.3709034000
0.6417634500	-0.0009999500	-0.0992001970	0.0002038034	0.3709068600
0.6448901300	-0.0009999500	-0.1001748100	0.0001865990	0.3735069000
0.6479670400	-0.0009999500	-0.1011355800	0.0001697391	0.3761067700
0.6509723700	-0.0009999500	-0.1020756200	0.0001549406	0.3786859500
0.6538861400	-0.0009999500	-0.1029885900	0.0001435062	0.3812173900
0.6566873200	-0.0009999500	-0.1038676900	0.0001354308	0.3836300100
0.6593614200	-0.0009999500	-0.1047082500	0.0001292023	0.3858915600
0.6619097600	-0.0009999500	-0.1055104700	0.0001236482	0.3880294000
0.6643375200	-0.0009999500	-0.1062758500	0.0001185910	0.3900595600
0.6666512500	-0.0009999500	-0.1070062700	0.0001140456	0.3919823800
0.6688650800	-0.0009999500	-0.1077060800	0.0001093543	0.3937912000
0.6709910600	-0.0009999500	-0.1083789600	0.0001042733	0.3955470000
0.6730359200	-0.0009999500	-0.1090269700	0.0001015931	0.3973065600
0.6750081200	-0.0009999500	-0.1096526900	0.0000973612	0.3987629700
0.6769145100	-0.0009999500	-0.1102582100	0.0000916830	0.4003932200
0.6787603500	-0.0009999500	-0.1108451500	0.0000901915	0.4019896100
0.6805531400	-0.0009999500	-0.1114158500	0.0000851197	0.4033072000
0.6822999100	-0.0009999500	-0.1119724500	0.0000796314	0.4049273100
0.6840059200	-0.0009999500	-0.1125166600	0.0000778090	0.4062529500
0.6856772300	-0.0009999500	-0.1130503100	0.0000717883	0.4073686300
0.6873194600	-0.0009999500	-0.1135751800	0.0000638515	0.4086817800
0.6889370700	-0.0009999500	-0.1140927200	0.0000636085	0.4102215800
0.6905344100	-0.0009999500	-0.1146042500	0.0000642079	0.4113444100
0.6921151300	-0.0009999500	-0.1151109300	0.0000539251	0.4124508800
0.6936815400	-0.0009999500	-0.1156135300	0.0000478040	0.4140083200
0.6952352500	-0.0009999500	-0.1161125100	0.0000473355	0.4151241500
0.6967766300	-0.0009999500	-0.1166079900	0.0000385418	0.4161026500
0.6983047700	-0.0009999500	-0.1170996700	0.0000320877	0.4174774300
0.6998186100	-0.0009999500	-0.1175871900	0.0000325424	0.4186599900
0.7013170700	-0.0009999500	-0.1180702100	0.0000266073	0.4196227200
0.7027997400	-0.0009999500	-0.1185485900	0.0000188712	0.4209523200
0.7042675600	-0.0009999500	-0.1190225900	0.0000199855	0.4222825500
0.7057215000	-0.0009999500	-0.1194925300	0.0000178638	0.4231295600
0.7071627400	-0.0009999500	-0.1199587700	0.0000073376	0.4241936500
0.7085919400	-0.0009999500	-0.1204215400	0.0000024977	0.4254805700
0.7100085600	-0.0009999500	-0.1208806400	0.0000019085	0.4264907800
0.7114116000	-0.0009999500	-0.1213357200	-0.0000031894	0.4274568000
0.7127997300	-0.0009999500	-0.1217863800	-0.0000104554	0.4285137700
0.7141710500	-0.0009999500	-0.1222319500	-0.0000139191	0.4296681600
0.7155236600	-0.0009999500	-0.1226718100	-0.0000185520	0.4305463400
0.7168556500	-0.0009999500	-0.1231053100	-0.0000220260	0.4316309700
0.7181640300	-0.0009999500	-0.1235315000	-0.0000231281	0.4325242300
0.7194488600	-0.0009999500	-0.1239503500	-0.0000324528	0.4333900500
0.7207058700	-0.0009999500	-0.1243604600	-0.0000368351	0.4345148200
0.7219280000	-0.0009999500	-0.1247595000	-0.0000392568	0.4351781000
0.7231082300	-0.0009999500	-0.1251451700	-0.0000428100	0.4361486400
0.7242410200	-0.0009999500	-0.1255155800	-0.0000418156	0.4369333400
0.7253205800	-0.0009999500	-0.1258688400	-0.0000498289	0.4375315600
0.7263422600	-0.0009999500	-0.1262033900	-0.0000570217	0.4384220800
0.7273023700	-0.0009999500	-0.1265179800	-0.0000527205	0.4391661600
0.7281983500	-0.0009999500	-0.1268117100	-0.0000483161	0.4397319600
0.7290295400	-0.0009999500	-0.1270843900	-0.0000483554	0.4403700500
0.7298089300	-0.0009999500	-0.1273401800	-0.0000538043	0.4408991600
0.7302681200	-0.0009999500	-0.1274909400	-0.0000522655	0.4413239700
0.7306724800	-0.0009999500	-0.1276237400	-0.0000540465	0.4416286300
0.7311468100	-0.0009999500	-0.1277795700	-0.0000506318	0.4419505600
0.7318165900	-0.0009999500	-0.1279996600	-0.0000527946	0.4422467400
0.7323474300	-0.0009999500	-0.1281741700	-0.0000592068	0.4427448500
0.7328686700	-0.0009999500	-0.1283455900	-0.0000548448	0.4431267700
0.7333489100	-0.0009999500	-0.1285035600	-0.0000507910	0.4433059700
0.7335434600	-0.0009999500	-0.1285675800	-0.0000540903	0.4434182300
0.7337852700	-0.0009999500	-0.1286471500	-0.0000586627	0.4435652200
0.7341902900	-0.0009999500	-0.1287804700	-0.0000591048	0.4439586400
0.7345337900	-0.0009999500	-0.1288935400	-0.0000580389	0.4439988700
0.7348535700	-0.0009999500	-0.1289988600	-0.0000643225	0.4442954700
0.7351412200	-0.0009999500	-0.1290936000	-0.0000617957	0.4446081500
0.7354347100	-0.0009999500	-0.1291903000	-0.0000626941	0.4446760700
0.7355544600	-0.0009999500	-0.1292297400	-0.0000649684	0.4447795700
0.7357470400	-0.0009999500	-0.1292931900	-0.0000674619	0.4449361000
0.7359286500	-0.0009999500	-0.1293530500	-0.0000653373	0.4450786700
0.7362933800	-0.0009999500	-0.1294732700	-0.0000655270	0.4453326500
0.7363117300	-0.0009999500	-0.1294793000	-0.0000655621	0.4453441500
0.7369115400	-0.0009999500	-0.1296771000	-0.0000606220	0.4457362600
0.7371335600	-0.0009999500	-0.1297503400	-0.0000540639	0.4458976700
0.7375099700	-0.0009999500	-0.1298745100	-0.0000445647	0.4461616000
0.7376693500	-0.0009999500	-0.1299270800	-0.0000326773	0.4462608400
0.7379119400	-0.0009999500	-0.1300071300	0.0000010556	0.4464625700
0.7381449300	-0.0009999500	-0.1300840200	0.0001195972	0.4465560300
0.7383272600	-0.0009999500	-0.1301441900	0.0003622649	0.4469375000
0.7384792000	-0.0009999500	-0.1301943400	0.0007738210	0.4431249500
0.7386058000	-0.0009999500	-0.1302361300	0.0012032840	0.4415259700
0.7384725200	-0.0009999500	-0.1302321000	0.0011280827	0.4460735600
0.7383126000	-0.0009999500	-0.1302272500	0.0007941998	0.4476481100
0.7381206800	-0.0009999500	-0.1302214400	0.0006812687	0.4469759500
0.7378760600	-0.0009999500	-0.1302140400	0.0006491285	0.4462346400
0.7376229800	-0.0009999500	-0.1302063300	0.0006597125	0.4458149400
0.7374566200	-0.0009999500	-0.1302012800	0.0006601272	0.4456767700
0.7370647200	-0.0009999500	-0.1301893600	0.0006634539	0.4453960100
0.7368334500	-0.0009999500	-0.1301823100	0.0006655746	0.4452473800
0.7362053400	-0.0009999500	-0.1301631300	0.0006610860	0.4447228300
0.7361168900	-0.0009999500	-0.1301604200	0.0006609165	0.4446249600
0.7357557400	-0.0009999500	-0.1301493200	0.0006766795	0.4441315800
0.7356098300	-0.0009999500	-0.1301448500	0.0006697295	0.4442608400
0.7354869200	-0.0009999500	-0.1301410600	0.0006514575	0.4436602600
0.7352724700	-0.0009999500	-0.1301344600	0.0006650994	0.4436315600
0.7351361500	-0.0009999500	-0.1301302600	0.0006916517	0.4438390400
0.7347685700	-0.0009999500	-0.1301189100	0.0006820942	0.4433433100
0.7343888300	-0.0009999500	-0.1301071600	0.0007080914	0.4423971500
0.7339972900	-0.0009999500	-0.1300950200	0.0007149380	0.4429625900
0.7335996000	-0.0009999500	-0.1300826500	0.0006930772	0.4417913900
0.7331633000	-0.0009999500	-0.1300690500	0.0006962406	0.4414441900
0.7331187700	-0.0009999500	-0.1300676500	0.0006957856	0.4414021100
0.7326692900	-0.0009999500	-0.1300536100	0.0006901613	0.4409172500
0.7321442400	-0.0009999500	-0.1300371400	0.0006951026	0.4401210800
0.7315654200	-0.0009999500	-0.1300189500	0.0007150296	0.4394122100
0.7309086900	-0.0009999500	-0.1299982400	0.0007211184	0.4394148600
0.7302150700	-0.0009999500	-0.1299762700	0.0007126308	0.4382337000
0.7296255200	-0.0009999500	-0.1299575400	0.0007265393	0.4372855100
0.7292082900	-0.0009999500	-0.1299442400	0.0007330233	0.4370016800
0.7286806700	-0.0009999500	-0.1299273800	0.0007267624	0.4366717300
0.7278428100	-0.0009999500	-0.1299005200	0.0007169687	0.4357706900
0.7269192300	-0.0009999500	-0.1298707400	0.0007250237	0.4342834100
0.7259346200	-0.0009999500	-0.1298388400	0.0007454970	0.4338967200
0.7248948200	-0.0009999500	-0.1298049500	0.0007412730	0.4332974600
0.7238047700	-0.0009999500	-0.1297692200	0.0007401783	0.4317503300
0.7226691200	-0.0009999500	-0.1297317700	0.0007509138	0.4308930900
0.7214933600	-0.0009999500	-0.1296927500	0.0007541467	0.4299048200
0.7202811800	-0.0009999500	-0.1296522800	0.0007667549	0.4286395900
0.7190355100	-0.0009999500	-0.1296104000	0.0007821687	0.4281121200
0.7177588900	-0.0009999500	-0.1295672100	0.0007838017	0.4271700700
0.7164542100	-0.0009999500	-0.1295227700	0.0007856027	0.4258201700
0.7151213900	-0.0009999500	-0.1294770500	0.0007899449	0.4248592900
0.7137621000	-0.0009999500	-0.1294301300	0.0008000220	0.4237146400
0.7123773700	-0.0009999500	-0.1293819800	0.0008158903	0.4231166200
0.7109690900	-0.0009999500	-0.1293326800	0.0008148092	0.4224302800
0.7095393500	-0.0009999500	-0.1292822700	0.0008176296	0.4205979100
0.7080891100	-0.0009999500	-0.1292307700	0.0008364465	0.4199373700
0.7066195000	-0.0009999500	-0.1291782300	0.0008419976	0.4194583900
0.7051314700	-0.0009999500	-0.1291246300	0.0008411942	0.4181286700
0.7036246700	-0.0009999500	-0.1290699800	0.0008409829	0.4171660500
0.7020987900	-0.0009999500	-0.1290142400	0.0008494089	0.4159412400
0.7005539500	-0.0009999500	-0.1289573900	0.0008618318	0.4156395500
0.6989904000	-0.0009999500	-0.1288994600	0.0008629458	0.4145879700
0.6974093300	-0.0009999500	-0.1288404500	0.0008676522	0.4134156700
0.6958124600	-0.0009999500	-0.1287804100	0.0008763512	0.4127103400
0.6942010500	-0.0009999500	-0.1287193900	0.0008809097	0.4119543400
0.6925759300	-0.0009999500	-0.1286574200	0.0008829065	0.4108906700
0.6909369800	-0.0009999500	-0.1285944600	0.0008898515	0.4099914700
0.6892831900	-0.0009999500	-0.1285304700	0.0008969843	0.4092545800
0.6876140200	-0.0009999500	-0.1284654300	0.0009013350	0.4083592300
0.6859294200	-0.0009999500	-0.1283993100	0.0009026016	0.4076089900
0.6842292500	-0.0009999500	-0.1283321200	0.0009053083	0.4066094200
0.6825135400	-0.0009999500	-0.1282638200	0.0009089899	0.4059793100
0.6807809500	-0.0009999500	-0.1281943600	0.0009140277	0.4049491600
0.6790272600	-0.0009999500	-0.1281235400	0.0009255824	0.4041849400
0.6772456800	-0.0009999500	-0.1280510900	0.0009262703	0.4037101300
0.6754270800	-0.0009999500	-0.1279766000	0.0009249909	0.4024639700
0.6735599600	-0.0009999500	-0.1278995400	0.0009382238	0.4015820000
0.6716321700	-0.0009999500	-0.1278194000	0.0009478188	0.4011706100
0.6696305300	-0.0009999500	-0.1277355600	0.0009464404	0.4001579900
0.6675424600	-0.0009999500	-0.1276474000	0.0009491890	0.3990579200
0.6653596800	-0.0009999500	-0.1275544900	0.0009569799	0.3982651200
0.6630722900	-0.0009999500	-0.1274563100	0.0009644422	0.3974151900
0.6606670600	-0.0009999500	-0.1273521600	0.0009733165	0.3964442300
0.6581325500	-0.0009999500	-0.1272414300	0.0009842168	0.3954650500
0.6554486800	-0.0009999500	-0.1271230600	0.0009964132	0.3944764100
0.6525841400	-0.0009999500	-0.1269954600	0.0010103509	0.3934170000
0.6495034700	-0.0009999500	-0.1268568000	0.0010266560	0.3922862700
0.6461439100	-0.0009999500	-0.1267039000	0.0010451401	0.3910764800
0.6424210100	-0.0009999500	-0.1265324100	0.0010654458	0.3897940500
0.6382837300	-0.0009999500	-0.1263393000	0.0010864473	0.3884704100
0.6382775900	-0.0009999500	-0.1263390200	0.0010864727	0.3884685600
0.6336818900	-0.0009999500	-0.1261214300	0.0011156368	0.3870750400
0.6290280200	-0.0009999500	-0.1258977900	0.0011426620	0.3856799900
0.6244773900	-0.0009999500	-0.1256759300	0.0011659760	0.3843613000
0.6200249200	-0.0009999500	-0.1254558300	0.0011853219	0.3831023600
0.6156603100	-0.0009999500	-0.1252371700	0.0012017440	0.3818986700
0.6113584600	-0.0009999500	-0.1250188600	0.0012148456	0.3807977400
0.6070946500	-0.0009999500	-0.1247997900	0.0012272026	0.3795195800
0.6028489500	-0.0009999500	-0.1245789500	0.0012388202	0.3784818100
0.5986052200	-0.0009999500	-0.1243555700	0.0012458025	0.3776109200
0.5943504000	-0.0009999500	-0.1241289500	0.0012520310	0.3766123700
0.5900757900	-0.0009999500	-0.1238986200	0.0012660937	0.3750134400
0.5857780600	-0.0009999500	-0.1236643600	0.0012822464	0.3746044300
0.5814548700	-0.0009999500	-0.1234260000	0.0012819985	0.3738760100
0.5771043900	-0.0009999500	-0.1231834100	0.0012869250	0.3720969600
0.5727255300	-0.0009999500	-0.1229364900	0.0013024239	0.3717953300
0.5683156800	-0.0009999500	-0.1226850500	0.0013034822	0.3708483300
0.5638701300	-0.0009999500	-0.1224287500	0.0013032685	0.3697834000
0.5593848800	-0.0009999500	-0.1221673100	0.0013098386	0.3689944700
0.5548540900	-0.0009999500	-0.1219003100	0.0013205215	0.3681519600
0.5502699000	-0.0009999500	-0.1216272000	0.0013316709	0.3673500400
0.5456259800	-0.0009999500	-0.1213474900	0.0013424548	0.3667096800
0.5409151900	-0.0009999500	-0.1210606500	0.0013503590	0.3656755400
0.5361326900	-0.0009999500	-0.1207662300	0.0013574289	0.3649941100
0.5312824800	-0.0009999500	-0.1204643600	0.0013636138	0.3643000700
0.5263734500	-0.0009999500	-0.1201554600	0.0013687764	0.3632748700
0.5214173800	-0.0009999500	-0.1198401700	0.0013751672	0.3628869400
0.5164315700	-0.0009999500	-0.1195194900	0.0013815779	0.3619555800
0.5114318700	-0.0009999500	-0.1191944300	0.0013943503	0.3611292500
0.5064265700	-0.0009999500	-0.1188654800	0.0014069134	0.3610371400
0.5014154900	-0.0009999500	-0.1185326400	0.0014107559	0.3599728900
0.4963913000	-0.0009999500	-0.1181953700	0.0014173241	0.3591286200
0.4913440600	-0.0009999500	-0.1178529900	0.0014272381	0.3590438100
0.4862643200	-0.0009999500	-0.1175047800	0.0014312415	0.3583536100
0.4811410600	-0.0009999500	-0.1171498900	0.0014351285	0.3577631100
0.4759643400	-0.0009999500	-0.1167875200	0.0014444771	0.3572482500
0.4707288700	-0.0009999500	-0.1164171900	0.0014562032	0.3565128400
0.4654313900	-0.0009999500	-0.1160385100	0.0014699069	0.3563056000
0.4600730200	-0.0009999500	-0.1156513900	0.0014753550	0.3561137600
0.4546653900	-0.0009999500	-0.1152565500	0.0014775528	0.3552077400
0.4492291500	-0.0009999500	-0.1148553900	0.0014860532	0.3549950100
0.4437873100	-0.0009999500	-0.1144495300	0.0015036155	0.3543075900
0.4383617000	-0.0009999500	-0.1140406100	0.0015167636	0.3543510100
0.4329711800	-0.0009999500	-0.1136300800	0.0015135429	0.3539722000
0.4276255700	-0.0009999500	-0.1132187500	0.0015211765	0.3538282200
0.4223241800	-0.0009999500	-0.1128066600	0.0015287293	0.3531260500
0.4170614200	-0.0009999500	-0.1123934500	0.0015383982	0.3527786700
0.4118289600	-0.0009999500	-0.1119785100	0.0015442248	0.3532725900
0.4066152900	-0.0009999500	-0.1115609500	0.0015435506	0.3525536100
0.4014083700	-0.0009999500	-0.1111398200	0.0015540402	0.3524310600
0.3961987200	-0.0009999500	-0.1107143200	0.0015641480	0.3525092000
0.3909812600	-0.0009999500	-0.1102839900	0.0015695793	0.3521455500
0.3857560800	-0.0009999500	-0.1098487800	0.0015788824	0.3521344400
0.3805269600	-0.0009999500	-0.1094089700	0.0015831113	0.3523768800
0.3752997800	-0.0009999500	-0.1089649900	0.0015854156	0.3519187900
0.3700799600	-0.0009999500	-0.1085172800	0.0015959242	0.3522296800
0.3648698600	-0.0009999500	-0.1080660300	0.0015995110	0.3520675600
0.3596665600	-0.0009999500	-0.1076109600	0.0016094537	0.3520465500
0.3544603600	-0.0009999500	-0.1071511800	0.0016205992	0.3523111300
0.3492370500	-0.0009999500	-0.1066853600	0.0016227718	0.3523365900
0.3439811800	-0.0009999500	-0.1062120100	0.0016278595	0.3525355500
0.3386776700	-0.0009999500	-0.1057296200	0.0016345795	0.3524449800
0.3333164200	-0.0009999500	-0.1052370500	0.0016460037	0.3527417200
0.3278942700	-0.0009999500	-0.1047338100	0.0016546366	0.3531311500
0.3224127600	-0.0009999500	-0.1042197900	0.0016568108	0.3532217100
0.3168791500	-0.0009999500	-0.1036954600	0.0016616923	0.3533889700
0.3113075800	-0.0009999500	-0.1031619400	0.0016752205	0.3537197400
0.3057188400	-0.0009999500	-0.1026210600	0.0016811756	0.3543546200
0.3001355200	-0.0009999500	-0.1020749000	0.0016836664	0.3543121500
0.2945774200	-0.0009999500	-0.1015253700	0.0016957951	0.3548798300
0.2890609800	-0.0009999500	-0.1009741300	0.0016971790	0.3553298400
0.2835923400	-0.0009999500	-0.1004218400	0.0017019802	0.3556288800
0.2781656100	-0.0009999500	-0.0998679470	0.0017086338	0.3562896500
0.2727675100	-0.0009999500	-0.0993111430	0.0017114401	0.3564492200
0.2673804800	-0.0009999500	-0.0987495780	0.0017183489	0.3572301900
0.2619875400	-0.0009999500	-0.0981814190	0.0017213032	0.3578333000
0.2565766300	-0.0009999500	-0.0976052510	0.0017258760	0.3582680500
0.2511431600	-0.0009999500	-0.0970204250	0.0017331950	0.3589260600
0.2456933300	-0.0009999500	-0.0964274180	0.0017382178	0.3597033600
0.2402425700	-0.0009999500	-0.0958277880	0.0017443444	0.3602310100
0.2348117100	-0.0009999500	-0.0952237550	0.0017559797	0.3609261200
0.2294263500	-0.0009999500	-0.0946181790	0.0017625954	0.3620895700
0.2241100800	-0.0009999500	-0.0940138100	0.0017621869	0.3625049300
0.2188734100	-0.0009999500	-0.0934120040	0.0017750494	0.3632307100
0.2137145800	-0.0009999500	-0.0928127390	0.0017834366	0.3645228700
0.2086233200	-0.0009999500	-0.0922149940	0.0017827997	0.3647991400
0.2035995900	-0.0009999500	-0.0916189100	0.0017917957	0.3659029600
0.1986070400	-0.0009999500	-0.0910202640	0.0017927835	0.3671450000
0.1936058400	-0.0009999500	-0.0904142110	0.0017943327	0.3674034200
0.1885602300	-0.0009999500	-0.0897962000	0.0018099820	0.3686070400
0.1834432000	-0.0009999500	-0.0891625880	0.0018150869	0.3698624700
0.1782375100	-0.0009999500	-0.0885107820	0.0018134265	0.3707134400
0.1729399700	-0.0009999500	-0.0878398640	0.0018202676	0.3716993000
0.1675592500	-0.0009999500	-0.0871504320	0.0018342743	0.3729738300
0.1621081200	-0.0009999500	-0.0864436100	0.0018403024	0.3745579700
0.1566018300	-0.0009999500	-0.0857209040	0.0018378068	0.3751870400
0.1510560100	-0.0009999500	-0.0849839750	0.0018453919	0.3767313400
0.1454799500	-0.0009999500	-0.0842336860	0.0018526011	0.3785408100
0.1398774500	-0.0009999500	-0.0834702250	0.0018557974	0.3796255000
0.1342509400	-0.0009999500	-0.0826936070	0.0018547141	0.3809607900
0.1286028600	-0.0009999500	-0.0819038150	0.0018631074	0.3825825800
0.1229393200	-0.0009999500	-0.0811013800	0.0018707898	0.3843340000
0.1172709400	-0.0009999500	-0.0802875240	0.0018721030	0.3859170700
0.1116110900	-0.0009999500	-0.0794639440	0.0018781670	0.3876636900
0.1059762000	-0.0009999500	-0.0786328990	0.0018834886	0.3894658700
0.1003842900	-0.0009999500	-0.0777969880	0.0018905428	0.3909193000
0.0948529320	-0.0009999500	-0.0769589100	0.0019006760	0.3931892500
0.0893949570	-0.0009999500	-0.0761207490	0.0018998333	0.3951970900
0.0840185660	-0.0009999500	-0.0752840040	0.0018985821	0.3964392200
0.0787304640	-0.0009999500	-0.0744500160	0.0019070258	0.3988001900
0.0735313450	-0.0009999500	-0.0736192090	0.0019084280	0.4008388500
0.0684187780	-0.0009999500	-0.0727914940	0.0019108417	0.4025698600
0.0633899720	-0.0009999500	-0.0719667150	0.0019174285	0.4047359800
0.0584362930	-0.0009999500	-0.0711437390	0.0019206603	0.4067097300
0.0535466070	-0.0009999500	-0.0703209340	0.0019290043	0.4086308500
0.0487119780	-0.0009999500	-0.0694969670	0.0019337402	0.4109916700
0.0439236980	-0.0009999500	-0.0686704670	0.0019265432	0.4130554200
0.0391767550	-0.0009999500	-0.0678406060	0.0019307960	0.4150700600
0.0344731510	-0.0009999500	-0.0670077880	0.0019380693	0.4177603100
0.0298185960	-0.0009999500	-0.0661731060	0.0019365387	0.4196971100
0.0252221320	-0.0009999500	-0.0653383360	0.0019499964	0.4216438200
0.0206942190	-0.0009999500	-0.0645055850	0.0019557878	0.4250687400
0.0162419160	-0.0009999500	-0.0636764320	0.0019422333	0.4263230000
0.0118719800	-0.0009999500	-0.0628524420	0.0019513396	0.4289222400
0.0075908126	-0.0009999500	-0.0620352070	0.0019470925	0.4323177600
0.0033994522	-0.0009999500	-0.0612253290	0.0019333989	0.4337759300
-0.0007018169	-0.0009999500	-0.0604232960	0.0019386314	0.4362880000
-0.0047126403	-0.0009999500	-0.0596296190	0.0019430042	0.4388595500
-0.0086384621	-0.0009999500	-0.0588436420	0.0019473550	0.4414262800
-0.0124893400	-0.0009999500	-0.0580637190	0.0019505964	0.4439460000
-0.0162773450	-0.0009999500	-0.0572876890	0.0019539333	0.4465678300
-0.0200175210	-0.0009999500	-0.0565126720	0.0019614034	0.4487558000
-0.0237259360	-0.0009999500	-0.0557354390	0.0019680291	0.4521016800
-0.0274145210	-0.0009999500	-0.0549535010	0.0019622855	0.4540492000
-0.0310900010	-0.0009999500	-0.0541653740	0.0019681750	0.4568450700
-0.0347550440	-0.0009999500	-0.0533704010	0.0019598995	0.4606127700
-0.0384084550	-0.0009999500	-0.0525687080	0.0019482716	0.4622987800
-0.0420458390	-0.0009999500	-0.0517611540	0.0019596831	0.4655033600
-0.0456602420	-0.0009999500	-0.0509492270	0.0019596317	0.4687288100
-0.0492438790	-0.0009999500	-0.0501346810	0.0019597853	0.4713701900
-0.0527898590	-0.0009999500	-0.0493191480	0.0019655212	0.4749525800
-0.0562905630	-0.0009999500	-0.0485045200	0.0019635337	0.4779965000
-0.0597408670	-0.0009999500	-0.0476921760	0.0019651924	0.4806031000
-0.0631435290	-0.0009999500	-0.0468816500	0.0019698017	0.4847593000
-0.0665055070	-0.0009999500	-0.0460714210	0.0019550409	0.4879108400
-0.0698350070	-0.0009999500	-0.0452595990	0.0019545707	0.4899894000
-0.0731418360	-0.0009999500	-0.0444438080	0.0019707034	0.4942771200
-0.0764347090	-0.0009999500	-0.0436218420	0.0019594912	0.4984481300
-0.0797189550	-0.0009999500	-0.0427922610	0.0019468010	0.5011450600
-0.0829970990	-0.0009999500	-0.0419542750	0.0019550267	0.5048973600
-0.0862699600	-0.0009999500	-0.0411074680	0.0019614543	0.5089224000
-0.0895378140	-0.0009999500	-0.0402515460	0.0019574724	0.5131073000
-0.0928017420	-0.0009999500	-0.0393859860	0.0019590381	0.5161383200
-0.0960642100	-0.0009999500	-0.0385098790	0.0019625833	0.5213057400
-0.0993284510	-0.0009999500	-0.0376220760	0.0019436274	0.5256842400
-0.1025977700	-0.0009999500	-0.0367213490	0.0019444666	0.5290515400
-0.1058753400	-0.0009999500	-0.0358064620	0.0019493022	0.5342501400
-0.1091635000	-0.0009999500	-0.0348763020	0.0019342219	0.5388702200
-0.1124636600	-0.0009999500	-0.0339299290	0.0019285575	0.5437768700
-0.1157785100	-0.0009999500	-0.0329660070	0.0019262216	0.5489494800
-0.1191126300	-0.0009999500	-0.0319825780	0.0019212409	0.5543777900
-0.1224725300	-0.0009999500	-0.0309769960	0.0019169373	0.5597865000
-0.1258716400	-0.0009999500	-0.0299443640	0.0019137843	0.5658356000
-0.1293276300	-0.0009999500	-0.0288781190	0.0019084187	0.5719542500
-0.1328567000	-0.0009999500	-0.0277716200	0.0019014758	0.5787842300
-0.1364789200	-0.0009999500	-0.0266165440	0.0018905988	0.5853635700
-0.1402162900	-0.0009999500	-0.0254033210	0.0018858785	0.5929297200
-0.1440752400	-0.0009999500	-0.0241268330	0.0018752451	0.6017214700
-0.1480636700	-0.0009999500	-0.0227809900	0.0018519376	0.6102687700
-0.1520508400	-0.0009999500	-0.0214071420	0.0018318726	0.6192907100
-0.1558297100	-0.0009999500	-0.0200773050	0.0018107109	0.6289152500
-0.1594100300	-0.0009999500	-0.0187910910	0.0017841985	0.6381673800
-0.1628034300	-0.0009999500	-0.0175472650	0.0017642633	0.6472398600
-0.1660428000	-0.0009999500	-0.0163363290	0.0017449869	0.6566828500
-0.1691565200	-0.0009999500	-0.0151494330	0.0017199535	0.6660580000
-0.1721663800	-0.0009999500	-0.0139794970	0.0016913768	0.6755032500
-0.1750941100	-0.0009999500	-0.0128189740	0.0016652102	0.6845828900
-0.1779555400	-0.0009999500	-0.0116621730	0.0016440022	0.6948286900
-0.1807615800	-0.0009999500	-0.0105050270	0.0016083444	0.7051668200
-0.1835225100	-0.0009999500	-0.0093432721	0.0015683336	0.7150420000
-0.1862460700	-0.0009999500	-0.0081731780	0.0015372329	0.7258188700
-0.1889368100	-0.0009999500	-0.0069921482	0.0015009206	0.7371386300
-0.1915997600	-0.0009999500	-0.0057972712	0.0014588804	0.7485437400
-0.1942390900	-0.0009999500	-0.0045858631	0.0014204589	0.7602948000
-0.1968584800	-0.0009999500	-0.0033552605	0.0013827118	0.7728596300
-0.1994606300	-0.0009999500	-0.0021025771	0.0013432503	0.7857349500
-0.2020453700	-0.0009999500	-0.0008259001	0.0013005237	0.7994402100
-0.2046088300	-0.0009999500	0.0004747975	0.0012573946	0.8130356100
-0.2071428600	-0.0009999500	0.0017970901	0.0012239563	0.8277230900
-0.2096364500	-0.0009999500	0.0031365566	0.0011849326	0.8430997700
-0.2120777800	-0.0009999500	0.0044884877	0.0011412509	0.8581206200
-0.2144541700	-0.0009999500	0.0058474187	0.0011019879	0.8738057000
-0.2167542900	-0.0009999500	0.0072074858	0.0010576519	0.8897386800
-0.2189717600	-0.0009999500	0.0085646613	0.0010066762	0.9054402100
-0.2211033600	-0.0009999500	0.0099162217	0.0009529394	0.9208511700
-0.2231459500	-0.0009999500	0.0112603780	0.0008903838	0.9361919800
-0.2250988000	-0.0009999500	0.0125968470	0.0008128766	0.9506816300
-0.2269662500	-0.0009999500	0.0139281840	0.0007271802	0.9642312500
-0.2287516000	-0.0009999500	0.0152560250	0.0006314130	0.9769046300
-0.2304592900	-0.0009999500	0.0165832490	0.0005172452	0.9878773700
-0.2320917400	-0.0009999500	0.0179136560	0.0003859250	0.9966009300
-0.2336484800	-0.0009999500	0.0192489900	0.0002413228	1.0027341000
-0.2351289800	-0.0009999500	0.0205902200	0.0000806841	1.0057838000
-0.2365318400	-0.0009999500	0.0219366290	-0.0001066582	1.0049105000
-0.2378535100	-0.0009999500	0.0232861970	-0.0002976830	0.9987506900
-0.2390389600	-0.0009999500	0.0245811980	-0.0004960586	0.9867126900
-0.2402686300	-0.0009999500	0.0260321480	-0.0007393699	0.9667517500
-0.2412858800	-0.0009999500	0.0273385200	-0.0009970065	0.9376609900
-0.2422367000	-0.0009999500	0.0286722090	-0.0012435515	0.8967309000
-0.2430997300	-0.0009999500	0.0300107900	-0.0014707103	0.8434901200
-0.2438577400	-0.0009999500	0.0313302170	-0.0016608630	0.7759386900
-0.2445175600	-0.0009999500	0.0326410980	-0.0017895464	0.6922565100
-0.2450663300	-0.0009999500	0.0339096370	-0.0018540886	0.5960848300
-0.2455091900	-0.0009999500	0.0351271670	-0.0018139526	0.4874901500
-0.2458642700	-0.0009999500	0.0363276680	-0.0016644635	0.3651442800
-0.2461287400	-0.0009999500	0.0374881290	-0.0013699968	0.2279500700
-0.2463070000	-0.0009999500	0.0385971110	-0.0009934282	0.0807890000
-0.2464076700	-0.0009999500	0.0396618020	-0.0004957704	-0.0621921610
-0.2464154400	-0.0009999500	0.0398867730	-0.0004088877	-0.0964842740
-0.2464382600	-0.0009999500	0.0406099860	0.0000094818	-0.1996687100
-0.2464227500	-0.0009999500	0.0413980820	0.0005165421	-0.3102140700
-0.2464224700	-0.0009999500	0.0414021870	0.0005191521	-0.3107650000
-0.2463428200	-0.0009999500	0.0424254870	0.0017127384	-0.4257505500
-0.2462019300	-0.0009999500	0.0434120450	0.0025892432	-0.5863857300
-0.2459980200	-0.0009999500	0.0443826650	0.0034584884	-0.7287039200
-0.2457368400	-0.0009999500	0.0453251340	0.0035547682	-0.8665365600
-0.2457254400	-0.0009999500	0.0453645590	0.0035882813	-0.8712934900
-0.2454856600	-0.0009999500	0.0460707510	0.0041778864	-0.9661352000
-0.2452027200	-0.0009999500	0.0467861110	0.0046953196	-1.0602500000
-0.2451432800	-0.0009999500	0.0469347280	0.0048832017	-1.0764506000
-0.2447035600	-0.0009999500	0.0478728750	0.0056859961	-1.1796007000
-0.2441518000	-0.0009999500	0.0488763750	0.0066712415	-1.2701789000
-0.2435373100	-0.0009999500	0.0498425220	0.0074422467	-1.3498865000
-0.2427994200	-0.0009999500	0.0508565870	0.0078384630	-1.4160582000
-0.2419730100	-0.0009999500	0.0518554000	0.0084766685	-1.4601825000
-0.2410503900	-0.0009999500	0.0528433880	0.0089010297	-1.4933006000
-0.2400118700	-0.0009999500	0.0538341780	0.0090162084	-1.5169456000
-0.2388752500	-0.0009999500	0.0548056360	0.0092233365	-1.5185386000
-0.2376491100	-0.0009999500	0.0557509060	0.0093655440	-1.5104523000