TITLE     = "HM M2 Grid FUN3D"
VARIABLES = "x"
"y"
"z"
"cp"
"cf_x"
ZONE T="Slice: Y=-0.001"
 STRANDID=0, SOLUTIONTIME=0
 I=384, J=1, K=1, ZONETYPE=Ordered
 DATAPACKING=POINT
 DT=(SINGLE SINGLE SINGLE SINGLE SINGLE )
 7.471460104E-01 -1.000000047E-03 -6.536680460E-02 4.134508967E-01 7.881211350E-04
 7.461198568E-01 -1.000000047E-03 -6.512606144E-02 4.076699913E-01 6.179880002E-04
 7.451688051E-01 -1.000000047E-03 -6.490223855E-02 4.149214625E-01 4.707933986E-04
 7.440252900E-01 -1.000000047E-03 -6.463283300E-02 4.149002135E-01 2.976610558E-04
 7.427846789E-01 -1.000000047E-03 -6.434226036E-02 4.190462232E-01 1.603863639E-04
 7.413231134E-01 -1.000000047E-03 -6.399831921E-02 4.182961881E-01 7.440405170E-05
 7.402550578E-01 -1.000000047E-03 -6.374872476E-02 4.174332023E-01 4.521664960E-05
 7.387437820E-01 -1.000000047E-03 -6.339687854E-02 4.168803990E-01 2.101307109E-05
 7.361114025E-01 -1.000000047E-03 -6.278344989E-02 4.150031507E-01 1.837002492E-05
 7.347427607E-01 -1.000000047E-03 -6.246457994E-02 4.143473208E-01 2.184311597E-05
 7.336081266E-01 -1.000000047E-03 -6.219824031E-02 4.127150178E-01 2.998069431E-05
 7.309195995E-01 -1.000000047E-03 -6.157379970E-02 4.110804200E-01 7.061690121E-05
 7.297127843E-01 -1.000000047E-03 -6.129504368E-02 4.114314914E-01 9.698191570E-05
 7.285209298E-01 -1.000000047E-03 -6.101659685E-02 4.088431597E-01 1.201224077E-04
 7.254742384E-01 -1.000000047E-03 -6.031154096E-02 4.069783390E-01 1.976394124E-04
 7.240835428E-01 -1.000000047E-03 -5.999193341E-02 4.079722166E-01 2.311159624E-04
 7.223853469E-01 -1.000000047E-03 -5.959551036E-02 4.021151960E-01 2.694194263E-04
 7.198190689E-01 -1.000000047E-03 -5.900388584E-02 4.004262984E-01 3.350235929E-04
 7.177793980E-01 -1.000000047E-03 -5.853428319E-02 3.989317119E-01 3.905115009E-04
 7.153722048E-01 -1.000000047E-03 -5.798134953E-02 3.982314467E-01 4.526474804E-04
 7.130444646E-01 -1.000000047E-03 -5.744729191E-02 3.931562901E-01 5.056994269E-04
 7.106393576E-01 -1.000000047E-03 -5.689676479E-02 3.924668133E-01 5.719872424E-04
 7.082639933E-01 -1.000000047E-03 -5.635357648E-02 3.878408074E-01 6.276222412E-04
 7.059158087E-01 -1.000000047E-03 -5.581791326E-02 3.886756003E-01 6.961356266E-04
 7.035178542E-01 -1.000000047E-03 -5.527156219E-02 3.842816949E-01 7.489597774E-04
 7.011601329E-01 -1.000000047E-03 -5.473553389E-02 3.836961389E-01 8.071635384E-04
 6.988145709E-01 -1.000000047E-03 -5.420294404E-02 3.777666986E-01 8.512198110E-04
 6.966434717E-01 -1.000000047E-03 -5.371101201E-02 3.788644671E-01 8.957886603E-04
 6.943261027E-01 -1.000000047E-03 -5.318688601E-02 3.748047054E-01 9.259349899E-04
 6.923159957E-01 -1.000000047E-03 -5.273286998E-02 3.708868623E-01 9.495611885E-04
 6.898424625E-01 -1.000000047E-03 -5.217540637E-02 3.701645136E-01 9.508853545E-04
 6.875160336E-01 -1.000000047E-03 -5.165171251E-02 3.659381270E-01 9.450521902E-04
 6.846999526E-01 -1.000000047E-03 -5.101957172E-02 3.627824485E-01 9.225039394E-04
 6.821552515E-01 -1.000000047E-03 -5.044893920E-02 3.603959382E-01 8.983069565E-04
 6.788322330E-01 -1.000000047E-03 -4.970614985E-02 3.597766161E-01 8.606446208E-04
 6.761229038E-01 -1.000000047E-03 -4.910120368E-02 3.547868729E-01 8.226395003E-04
 6.719740033E-01 -1.000000047E-03 -4.817856103E-02 3.492309451E-01 7.813157281E-04
 6.687198877E-01 -1.000000047E-03 -4.745566845E-02 3.482309878E-01 7.415795699E-04
 6.635825038E-01 -1.000000047E-03 -4.631987959E-02 3.339082301E-01 7.077655173E-04
 6.602857113E-01 -1.000000047E-03 -4.559199512E-02 3.322158456E-01 6.810795167E-04
 6.542743444E-01 -1.000000047E-03 -4.427122697E-02 3.177914619E-01 6.554911379E-04
 6.514137983E-01 -1.000000047E-03 -4.364426807E-02 3.155220449E-01 6.411814247E-04
 6.447098851E-01 -1.000000047E-03 -4.218495637E-02 3.365264833E-01 6.175094750E-04
 6.390448809E-01 -1.000000047E-03 -4.095350206E-02 3.213701248E-01 5.903324927E-04
 6.289964318E-01 -1.000000047E-03 -3.878897056E-02 3.099290431E-01 5.714268773E-04
 6.189255714E-01 -1.000000047E-03 -3.662656993E-02 3.058341444E-01 5.398157518E-04
 6.062765718E-01 -1.000000047E-03 -3.394461423E-02 2.984645069E-01 5.078025861E-04
 5.947305560E-01 -1.000000047E-03 -3.150971606E-02 2.871595025E-01 4.712237569E-04
 5.791563392E-01 -1.000000047E-03 -2.826948836E-02 2.822262645E-01 4.403499770E-04
 5.636872649E-01 -1.000000047E-03 -2.507889830E-02 2.710542083E-01 4.296297557E-04
 5.463381410E-01 -1.000000047E-03 -2.155049704E-02 2.611043453E-01 4.357262806E-04
 5.294031501E-01 -1.000000047E-03 -1.814640686E-02 2.492807508E-01 4.787783546E-04
 5.119301081E-01 -1.000000047E-03 -1.467834134E-02 2.385765463E-01 5.390411825E-04
 4.969358444E-01 -1.000000047E-03 -1.173918135E-02 2.290743142E-01 6.218267954E-04
 4.807092249E-01 -1.000000047E-03 -8.594752289E-03 2.194957733E-01 7.035397575E-04
 4.671378732E-01 -1.000000047E-03 -5.995129701E-03 2.103967667E-01 7.821716135E-04
 4.516435564E-01 -1.000000047E-03 -3.061608411E-03 2.005731761E-01 8.546794998E-04
 4.385804534E-01 -1.000000047E-03 -6.161725032E-04 1.912292093E-01 9.159170440E-04
 4.238258004E-01 -1.000000047E-03 2.113741823E-03 1.797589660E-01 9.771112818E-04
 4.116451740E-01 -1.000000047E-03 4.341476597E-03 1.723666936E-01 1.031379099E-03
 3.973712623E-01 -1.000000047E-03 6.921864580E-03 1.624133140E-01 1.089352532E-03
 3.855992556E-01 -1.000000047E-03 9.024702944E-03 1.528784633E-01 1.140379114E-03
 3.720189929E-01 -1.000000047E-03 1.142257173E-02 1.426760852E-01 1.195799909E-03
 3.611625731E-01 -1.000000047E-03 1.331629697E-02 1.354123205E-01 1.245163614E-03
 3.481167555E-01 -1.000000047E-03 1.556491759E-02 1.247997060E-01 1.298893359E-03
 3.376407027E-01 -1.000000047E-03 1.734828204E-02 1.155829132E-01 1.346782083E-03
 3.253013790E-01 -1.000000047E-03 1.942334324E-02 1.061752364E-01 1.400531037E-03
 3.153367937E-01 -1.000000047E-03 2.107696235E-02 9.898944199E-02 1.447507297E-03
 3.037413955E-01 -1.000000047E-03 2.297885716E-02 8.986020088E-02 1.499757171E-03
 2.945697010E-01 -1.000000047E-03 2.446169220E-02 8.248403668E-02 1.541986479E-03
 2.840380371E-01 -1.000000047E-03 2.614719979E-02 7.355749607E-02 1.590112923E-03
 2.766094506E-01 -1.000000047E-03 2.731906809E-02 6.732939929E-02 1.630068291E-03
 2.666034400E-01 -1.000000047E-03 2.888177149E-02 5.921476334E-02 1.676279004E-03
 2.591582537E-01 -1.000000047E-03 3.002893552E-02 5.235345662E-02 1.713257981E-03
 2.490606755E-01 -1.000000047E-03 3.156567365E-02 4.337148741E-02 1.758245868E-03
 2.409159243E-01 -1.000000047E-03 3.278775513E-02 3.541577607E-02 1.794507029E-03
 2.309138626E-01 -1.000000047E-03 3.426760808E-02 2.614871040E-02 1.838352298E-03
 2.230211198E-01 -1.000000047E-03 3.541718423E-02 1.972009614E-02 1.875129179E-03
 2.133452445E-01 -1.000000047E-03 3.680654615E-02 1.140530501E-02 1.919551636E-03
 2.059161812E-01 -1.000000047E-03 3.785546869E-02 4.538836423E-03 1.956066582E-03
 1.965585947E-01 -1.000000047E-03 3.915747628E-02 -3.848096821E-03 2.000468550E-03
 1.895172596E-01 -1.000000047E-03 4.012025148E-02 -9.933522902E-03 2.036903519E-03
 1.805351079E-01 -1.000000047E-03 4.132968187E-02 -1.856466942E-02 2.084859181E-03
 1.735001355E-01 -1.000000047E-03 4.225952178E-02 -2.482308447E-02 2.122750506E-03
 1.647654325E-01 -1.000000047E-03 4.339551553E-02 -3.292329609E-02 2.170483815E-03
 1.580799818E-01 -1.000000047E-03 4.424812645E-02 -3.909564018E-02 2.210436855E-03
 1.496360600E-01 -1.000000047E-03 4.530672729E-02 -4.715348035E-02 2.258890541E-03
 1.432439089E-01 -1.000000047E-03 4.609187320E-02 -5.301193148E-02 2.298803069E-03
 1.351760477E-01 -1.000000047E-03 4.706502333E-02 -6.049278006E-02 2.348066773E-03
 1.290079355E-01 -1.000000047E-03 4.779326171E-02 -6.617414206E-02 2.388120862E-03
 1.212117150E-01 -1.000000047E-03 4.869604111E-02 -7.325138897E-02 2.436084207E-03
 1.152109578E-01 -1.000000047E-03 4.937534407E-02 -7.874117047E-02 2.476134570E-03
 1.076705083E-01 -1.000000047E-03 5.021164566E-02 -8.582303673E-02 2.525454387E-03
 1.018579528E-01 -1.000000047E-03 5.084070191E-02 -9.145005792E-02 2.565466333E-03
 9.448921680E-02 -1.000000047E-03 5.162126571E-02 -9.812927991E-02 2.613443416E-03
 8.889937401E-02 -1.000000047E-03 5.219792575E-02 -1.035983637E-01 2.652510768E-03
 8.173832297E-02 -1.000000047E-03 5.292022973E-02 -1.107404232E-01 2.702060621E-03
 7.637102902E-02 -1.000000047E-03 5.344658718E-02 -1.166761369E-01 2.741656266E-03
 6.942373514E-02 -1.000000047E-03 5.411136523E-02 -1.232899874E-01 2.791067120E-03
 6.421450526E-02 -1.000000047E-03 5.459521338E-02 -1.271250844E-01 2.830658108E-03
 5.749201775E-02 -1.000000047E-03 5.520316586E-02 -1.336617619E-01 2.879696665E-03
 5.237231031E-02 -1.000000047E-03 5.565134808E-02 -1.390337050E-01 2.918716753E-03
 4.586238042E-02 -1.000000047E-03 5.620508641E-02 -1.451996565E-01 2.965353662E-03
 4.091569781E-02 -1.000000047E-03 5.661116540E-02 -1.500532180E-01 3.004671074E-03
 3.466688097E-02 -1.000000047E-03 5.710860714E-02 -1.559479982E-01 3.050091676E-03
 2.980091795E-02 -1.000000047E-03 5.748120695E-02 -1.612113118E-01 3.088554833E-03
 2.376870438E-02 -1.000000047E-03 5.792779475E-02 -1.671228558E-01 3.129409626E-03
 1.897218078E-02 -1.000000047E-03 5.826819316E-02 -1.713605672E-01 3.165498842E-03
 1.319094468E-02 -1.000000047E-03 5.866333842E-02 -1.774594635E-01 3.202943364E-03
 8.515293710E-03 -1.000000047E-03 5.896876380E-02 -1.819018722E-01 3.232612740E-03
 2.922663931E-03 -1.000000047E-03 5.931853130E-02 -1.867228448E-01 3.263690276E-03
 -1.658470137E-03 -1.000000047E-03 5.959149450E-02 -1.919214576E-01 3.291209461E-03
 -7.017794065E-03 -1.000000047E-03 5.989506841E-02 -1.976131797E-01 3.325038822E-03
 -1.143954042E-02 -1.000000047E-03 6.013236940E-02 -2.019523978E-01 3.355733817E-03
 -1.667213999E-02 -1.000000047E-03 6.039759889E-02 -2.059824020E-01 3.391271224E-03
 -2.094025351E-02 -1.000000047E-03 6.060070544E-02 -2.101939321E-01 3.423166461E-03
 -2.605391853E-02 -1.000000047E-03 6.082900241E-02 -2.152622640E-01 3.459790023E-03
 -3.020616621E-02 -1.000000047E-03 6.100081280E-02 -2.199253142E-01 3.491933690E-03
 -3.521973640E-02 -1.000000047E-03 6.119332835E-02 -2.249451131E-01 3.524916712E-03
 -3.929555044E-02 -1.000000047E-03 6.133626774E-02 -2.287060767E-01 3.556148848E-03
 -4.413986206E-02 -1.000000047E-03 6.149119139E-02 -2.334672213E-01 3.587105544E-03
 -4.813722521E-02 -1.000000047E-03 6.160574406E-02 -2.376023680E-01 3.615796799E-03
 -5.283994973E-02 -1.000000047E-03 6.172525510E-02 -2.425756603E-01 3.641395364E-03
 -5.669966340E-02 -1.000000047E-03 6.181054935E-02 -2.463056743E-01 3.666304983E-03
 -6.124705076E-02 -1.000000047E-03 6.189560890E-02 -2.502344847E-01 3.689698176E-03
 -6.504745036E-02 -1.000000047E-03 6.195373833E-02 -2.541085184E-01 3.711847123E-03
 -6.950257719E-02 -1.000000047E-03 6.200652197E-02 -2.607453465E-01 3.733926686E-03
 -7.315541804E-02 -1.000000047E-03 6.203674525E-02 -2.637718022E-01 3.754565027E-03
 -7.747071981E-02 -1.000000047E-03 6.205758452E-02 -2.667593956E-01 3.774229670E-03
 -8.105280995E-02 -1.000000047E-03 6.206146628E-02 -2.700220346E-01 3.787853988E-03
 -8.526565880E-02 -1.000000047E-03 6.205134839E-02 -2.751027644E-01 3.800569335E-03
 -8.876276761E-02 -1.000000047E-03 6.202937290E-02 -2.790447176E-01 3.809807356E-03
 -9.281821549E-02 -1.000000047E-03 6.198954582E-02 -2.835563123E-01 3.823136678E-03
 -9.626337886E-02 -1.000000047E-03 6.194208562E-02 -2.876543403E-01 3.829522757E-03
 -1.002249494E-01 -1.000000047E-03 6.187260151E-02 -2.915580273E-01 3.841594560E-03
 -1.036659703E-01 -1.000000047E-03 6.179826334E-02 -2.948770225E-01 3.851213027E-03
 -1.074817330E-01 -1.000000047E-03 6.170073524E-02 -2.998224199E-01 3.864345839E-03
 -1.108453348E-01 -1.000000047E-03 6.160049513E-02 -3.051522374E-01 3.877588315E-03
 -1.145234182E-01 -1.000000047E-03 6.147608161E-02 -3.065554798E-01 3.900115145E-03
 -1.177651808E-01 -1.000000047E-03 6.135198846E-02 -3.108329475E-01 3.898312571E-03
 -1.212400422E-01 -1.000000047E-03 6.120522320E-02 -3.171772361E-01 3.926490899E-03
 -1.249112710E-01 -1.000000047E-03 6.103236601E-02 -3.231326938E-01 3.945312463E-03
 -1.281564683E-01 -1.000000047E-03 6.086493284E-02 -3.241709471E-01 3.964953590E-03
 -1.315257102E-01 -1.000000047E-03 6.067552418E-02 -3.252278864E-01 3.971763887E-03
 -1.346775442E-01 -1.000000047E-03 6.048326939E-02 -3.327422440E-01 3.984387964E-03
 -1.386021972E-01 -1.000000047E-03 6.022461504E-02 -3.410448730E-01 4.002196714E-03
 -1.416596025E-01 -1.000000047E-03 6.000463665E-02 -3.429416120E-01 4.022616427E-03
 -1.449324638E-01 -1.000000047E-03 5.975507200E-02 -3.424641788E-01 4.057288636E-03
 -1.479614973E-01 -1.000000047E-03 5.950553343E-02 -3.469662964E-01 4.092666321E-03
 -1.513066590E-01 -1.000000047E-03 5.921402946E-02 -3.579825163E-01 4.157403950E-03
 -1.541019976E-01 -1.000000047E-03 5.895401165E-02 -3.547560573E-01 4.212488886E-03
 -1.564427167E-01 -1.000000047E-03 5.872317404E-02 -3.512853980E-01 4.223190248E-03
 -1.587730646E-01 -1.000000047E-03 5.848778784E-02 -3.592216969E-01 4.218055867E-03
 -1.613156796E-01 -1.000000047E-03 5.821020529E-02 -3.640813231E-01 4.243183415E-03
 -1.638158858E-01 -1.000000047E-03 5.793347210E-02 -3.720101714E-01 4.311880562E-03
 -1.665131599E-01 -1.000000047E-03 5.761425570E-02 -3.649807274E-01 4.396690056E-03
 -1.680319756E-01 -1.000000047E-03 5.742659792E-02 -3.658737540E-01 4.402879160E-03
 -1.705957502E-01 -1.000000047E-03 5.710253119E-02 -3.795219660E-01 4.401569720E-03
 -1.729334593E-01 -1.000000047E-03 5.678446591E-02 -3.808538616E-01 4.424347077E-03
 -1.755795628E-01 -1.000000047E-03 5.642047524E-02 -3.843625188E-01 4.441538360E-03
 -1.782161444E-01 -1.000000047E-03 5.602895096E-02 -3.884432614E-01 4.484922625E-03
 -1.812048703E-01 -1.000000047E-03 5.557233468E-02 -3.911618292E-01 4.533116706E-03
 -1.838602871E-01 -1.000000047E-03 5.513664335E-02 -3.947165310E-01 4.582762253E-03
 -1.861729771E-01 -1.000000047E-03 5.474710464E-02 -4.006770551E-01 4.655519500E-03
 -1.888019443E-01 -1.000000047E-03 5.427621305E-02 -4.033911228E-01 4.720165394E-03
 -1.905696094E-01 -1.000000047E-03 5.395105481E-02 -4.050023258E-01 4.769321997E-03
 -1.931822747E-01 -1.000000047E-03 5.344420671E-02 -4.055255055E-01 4.834200721E-03
 -1.950058490E-01 -1.000000047E-03 5.307625607E-02 -4.090642035E-01 4.873958416E-03
 -1.975436360E-01 -1.000000047E-03 5.254442990E-02 -4.145882130E-01 4.968389403E-03
 -1.991716772E-01 -1.000000047E-03 5.218287557E-02 -4.137562215E-01 5.020415876E-03
 -2.010702640E-01 -1.000000047E-03 5.175718293E-02 -4.210669994E-01 5.099205766E-03
 -2.030473948E-01 -1.000000047E-03 5.128724501E-02 -4.205558598E-01 5.176902749E-03
 -2.044328749E-01 -1.000000047E-03 5.094986781E-02 -4.238134325E-01 5.239244550E-03
 -2.065871805E-01 -1.000000047E-03 5.040581524E-02 -4.236783981E-01 5.350545514E-03
 -2.076749504E-01 -1.000000047E-03 5.011533201E-02 -4.231600165E-01 5.359595176E-03
 -2.095974535E-01 -1.000000047E-03 4.959926382E-02 -4.290579259E-01 5.383351352E-03
 -2.110257298E-01 -1.000000047E-03 4.919506237E-02 -4.313517809E-01 5.401616916E-03
 -2.133052349E-01 -1.000000047E-03 4.852644727E-02 -4.361841679E-01 5.451993085E-03
 -2.148317397E-01 -1.000000047E-03 4.805948958E-02 -4.379005134E-01 5.504547618E-03
 -2.168965340E-01 -1.000000047E-03 4.739474878E-02 -4.371539950E-01 5.585310515E-03
 -2.183501124E-01 -1.000000047E-03 4.691292346E-02 -4.390429258E-01 5.660475697E-03
 -2.203587443E-01 -1.000000047E-03 4.620294645E-02 -4.414749742E-01 5.755661987E-03
 -2.214928269E-01 -1.000000047E-03 4.579755291E-02 -4.417636096E-01 5.825841799E-03
 -2.226268351E-01 -1.000000047E-03 4.536296427E-02 -4.412077069E-01 5.826881621E-03
 -2.244045585E-01 -1.000000047E-03 4.467152432E-02 -4.367655814E-01 5.901671015E-03
 -2.257869989E-01 -1.000000047E-03 4.409766570E-02 -4.357596040E-01 5.922640208E-03
 -2.273793817E-01 -1.000000047E-03 4.341633990E-02 -4.308181405E-01 6.005220115E-03
 -2.287795842E-01 -1.000000047E-03 4.277886078E-02 -4.311496317E-01 6.038643885E-03
 -2.302497625E-01 -1.000000047E-03 4.208390415E-02 -4.235159755E-01 6.091701332E-03
 -2.315619737E-01 -1.000000047E-03 4.142303020E-02 -4.167584181E-01 6.105531938E-03
 -2.329255491E-01 -1.000000047E-03 4.070773721E-02 -4.091760814E-01 6.133283954E-03
 -2.341827452E-01 -1.000000047E-03 4.000375792E-02 -4.055104554E-01 6.128094625E-03
 -2.354528904E-01 -1.000000047E-03 3.926149383E-02 -3.915873468E-01 6.138985511E-03
 -2.366082221E-01 -1.000000047E-03 3.853821754E-02 -3.835582435E-01 6.107677240E-03
 -2.377576977E-01 -1.000000047E-03 3.778388351E-02 -3.710773289E-01 6.089341827E-03
 -2.388503850E-01 -1.000000047E-03 3.700975701E-02 -3.534031510E-01 6.023855414E-03
 -2.399230897E-01 -1.000000047E-03 3.620971739E-02 -3.309596777E-01 5.960833281E-03
 -2.409286648E-01 -1.000000047E-03 3.539278731E-02 -3.103555739E-01 5.833385047E-03
 -2.418946922E-01 -1.000000047E-03 3.456298634E-02 -2.832381725E-01 5.715659820E-03
 -2.428425848E-01 -1.000000047E-03 3.366697207E-02 -2.536529005E-01 5.530700553E-03
 -2.436918318E-01 -1.000000047E-03 3.281008080E-02 -2.159644663E-01 5.369092338E-03
 -2.445578128E-01 -1.000000047E-03 3.183212131E-02 -1.707970500E-01 5.092013627E-03
 -2.452581376E-01 -1.000000047E-03 3.097602539E-02 -1.263888627E-01 4.863264970E-03
 -2.460488081E-01 -1.000000047E-03 2.987430617E-02 -6.480878592E-02 4.459506832E-03
 -2.465892285E-01 -1.000000047E-03 2.903962880E-02 -7.762754802E-03 4.179032054E-03
 -2.472743541E-01 -1.000000047E-03 2.781069651E-02 7.032995671E-02 3.682445735E-03
 -2.476424575E-01 -1.000000047E-03 2.704792470E-02 1.287355870E-01 3.373214975E-03
 -2.481372207E-01 -1.000000047E-03 2.585106902E-02 2.214745134E-01 2.756282687E-03
 -2.483413965E-01 -1.000000047E-03 2.521313354E-02 2.660006881E-01 2.322220476E-03
 -2.486806810E-01 -1.000000047E-03 2.405330352E-02 3.928909004E-01 1.739232335E-03
 -2.489298135E-01 -1.000000047E-03 2.251598053E-02 4.902087152E-01 1.208260888E-03
 -2.490484715E-01 -1.000000047E-03 2.179136313E-02 5.610305667E-01 1.032624627E-03
 -2.490574270E-01 -1.000000047E-03 2.105708607E-02 5.904977322E-01 7.117391797E-04
 -2.490799576E-01 -1.000000047E-03 1.950416714E-02 7.103832364E-01 2.261069749E-04
 -2.489495128E-01 -1.000000047E-03 1.831190474E-02 7.644985914E-01 -1.890002386E-05
 -2.488577813E-01 -1.000000047E-03 1.763446443E-02 8.092284203E-01 -1.215699594E-04
 -2.485831678E-01 -1.000000047E-03 1.638554223E-02 8.751885891E-01 -2.154762042E-04
 -2.483412176E-01 -1.000000047E-03 1.553107332E-02 8.978935480E-01 -2.517078829E-04
 -2.478838265E-01 -1.000000047E-03 1.421704050E-02 9.359868169E-01 -1.925076795E-04
 -2.474679947E-01 -1.000000047E-03 1.324213110E-02 9.586616755E-01 -1.279910939E-04
 -2.468878329E-01 -1.000000047E-03 1.204149798E-02 9.722847342E-01 3.026830018E-05
 -2.463195920E-01 -1.000000047E-03 1.103580464E-02 9.764261246E-01 1.738154242E-04
 -2.456383407E-01 -1.000000047E-03 9.931917302E-03 9.794408083E-01 3.617489710E-04
 -2.449302375E-01 -1.000000047E-03 8.917286992E-03 9.734189510E-01 5.336776376E-04
 -2.441810519E-01 -1.000000047E-03 7.915178314E-03 9.668431282E-01 7.120922673E-04
 -2.433190197E-01 -1.000000047E-03 6.871250458E-03 9.519631267E-01 8.773726295E-04
 -2.424865514E-01 -1.000000047E-03 5.916683935E-03 9.376178980E-01 1.024673693E-03
 -2.415248901E-01 -1.000000047E-03 4.902673885E-03 9.210187793E-01 1.170033007E-03
 -2.406405210E-01 -1.000000047E-03 4.011805635E-03 9.051027894E-01 1.294438029E-03
 -2.395547926E-01 -1.000000047E-03 2.996979980E-03 8.845145106E-01 1.410667202E-03
 -2.385747135E-01 -1.000000047E-03 2.116628923E-03 8.694170713E-01 1.505080960E-03
 -2.374018133E-01 -1.000000047E-03 1.129045268E-03 8.495406508E-01 1.603243989E-03
 -2.363663316E-01 -1.000000047E-03 2.867504954E-04 8.317909241E-01 1.685113646E-03
 -2.350896299E-01 -1.000000047E-03 -6.936165155E-04 8.074410558E-01 1.764342189E-03
 -2.339564711E-01 -1.000000047E-03 -1.536602853E-03 7.914351821E-01 1.827890403E-03
 -2.325588614E-01 -1.000000047E-03 -2.521821298E-03 7.685566545E-01 1.891267486E-03
 -2.313555181E-01 -1.000000047E-03 -3.345341654E-03 7.520138621E-01 1.947593759E-03
 -2.298527658E-01 -1.000000047E-03 -4.324288573E-03 7.307358980E-01 2.001858084E-03
 -2.285304070E-01 -1.000000047E-03 -5.162120797E-03 7.133899331E-01 2.049316419E-03
 -2.269110382E-01 -1.000000047E-03 -6.143082399E-03 6.923421025E-01 2.098394092E-03
 -2.255244851E-01 -1.000000047E-03 -6.961082108E-03 6.770172119E-01 2.143274294E-03
 -2.238420993E-01 -1.000000047E-03 -7.912743837E-03 6.573057175E-01 2.186236205E-03
 -2.223616987E-01 -1.000000047E-03 -8.729149587E-03 6.434160471E-01 2.224247204E-03
 -2.206422687E-01 -1.000000047E-03 -9.642534889E-03 6.267124414E-01 2.261111978E-03
 -2.191166431E-01 -1.000000047E-03 -1.043350250E-02 6.127575636E-01 2.290405799E-03
 -2.173043936E-01 -1.000000047E-03 -1.134066563E-02 5.976718068E-01 2.314904006E-03
 -2.157035470E-01 -1.000000047E-03 -1.212445553E-02 5.852071643E-01 2.346298192E-03
 -2.134328932E-01 -1.000000047E-03 -1.319306716E-02 5.655717850E-01 2.384352498E-03
 -2.120854408E-01 -1.000000047E-03 -1.382009685E-02 5.549419522E-01 2.417286625E-03
 -2.106335014E-01 -1.000000047E-03 -1.446627546E-02 5.471665859E-01 2.437591320E-03
 -2.081667930E-01 -1.000000047E-03 -1.555595733E-02 5.337865949E-01 2.491380554E-03
 -2.062346041E-01 -1.000000047E-03 -1.637485251E-02 5.219675899E-01 2.510486171E-03
 -2.035863549E-01 -1.000000047E-03 -1.747403108E-02 5.069495440E-01 2.547500189E-03
 -2.015168816E-01 -1.000000047E-03 -1.830544509E-02 4.950330853E-01 2.572951606E-03
 -1.984838098E-01 -1.000000047E-03 -1.948734187E-02 4.826255739E-01 2.605287125E-03
 -1.965222955E-01 -1.000000047E-03 -2.023528889E-02 4.731405079E-01 2.623806009E-03
 -1.938295811E-01 -1.000000047E-03 -2.122421749E-02 4.695507884E-01 2.671186347E-03
 -1.920423359E-01 -1.000000047E-03 -2.187752165E-02 4.616849720E-01 2.694573486E-03
 -1.888798773E-01 -1.000000047E-03 -2.299000882E-02 4.449885786E-01 2.658079378E-03
 -1.864547282E-01 -1.000000047E-03 -2.382107265E-02 4.336054027E-01 2.630661707E-03
 -1.829178631E-01 -1.000000047E-03 -2.500493266E-02 4.181651473E-01 2.627323614E-03
 -1.796067357E-01 -1.000000047E-03 -2.606702223E-02 4.091640115E-01 2.606625902E-03
 -1.768441051E-01 -1.000000047E-03 -2.694743127E-02 3.983238637E-01 2.620093990E-03
 -1.744661182E-01 -1.000000047E-03 -2.767090686E-02 3.908462226E-01 2.624555491E-03
 -1.695444882E-01 -1.000000047E-03 -2.915062010E-02 3.773182034E-01 2.633789554E-03
 -1.661070287E-01 -1.000000047E-03 -3.014005348E-02 3.744346797E-01 2.635185141E-03
 -1.629061997E-01 -1.000000047E-03 -3.104564361E-02 3.666013777E-01 2.644063206E-03
 -1.591815203E-01 -1.000000047E-03 -3.206750378E-02 3.540348411E-01 2.650235780E-03
 -1.549668908E-01 -1.000000047E-03 -3.319255635E-02 3.459092975E-01 2.632955089E-03
 -1.509831399E-01 -1.000000047E-03 -3.422372043E-02 3.399499655E-01 2.627141774E-03
 -1.469001174E-01 -1.000000047E-03 -3.525410220E-02 3.315602243E-01 2.635153709E-03
 -1.430404335E-01 -1.000000047E-03 -3.619920835E-02 3.238939643E-01 2.635809826E-03
 -1.388527602E-01 -1.000000047E-03 -3.720013797E-02 3.170700371E-01 2.636337886E-03
 -1.348899305E-01 -1.000000047E-03 -3.812072799E-02 3.118472397E-01 2.632783493E-03
 -1.307187676E-01 -1.000000047E-03 -3.906697407E-02 3.060657084E-01 2.637187485E-03
 -1.265968680E-01 -1.000000047E-03 -3.997629508E-02 3.013505638E-01 2.634456148E-03
 -1.225758940E-01 -1.000000047E-03 -4.084272683E-02 2.967795730E-01 2.643218264E-03
 -1.181129664E-01 -1.000000047E-03 -4.177860916E-02 2.912662327E-01 2.647782443E-03
 -1.142102480E-01 -1.000000047E-03 -4.257795960E-02 2.869623899E-01 2.655250253E-03
 -1.096719056E-01 -1.000000047E-03 -4.348339513E-02 2.822893858E-01 2.652534982E-03
 -1.057646126E-01 -1.000000047E-03 -4.424462840E-02 2.782999575E-01 2.660103608E-03
 -1.010218561E-01 -1.000000047E-03 -4.514530301E-02 2.729830146E-01 2.657418605E-03
 -9.697849303E-02 -1.000000047E-03 -4.589521512E-02 2.697322369E-01 2.670313697E-03
 -9.207799286E-02 -1.000000047E-03 -4.678034782E-02 2.664356232E-01 2.681390150E-03
 -8.812180161E-02 -1.000000047E-03 -4.747875407E-02 2.625376284E-01 2.695293399E-03
 -8.308518678E-02 -1.000000047E-03 -4.834469780E-02 2.574612498E-01 2.700076438E-03
 -7.909454405E-02 -1.000000047E-03 -4.901491478E-02 2.546758056E-01 2.711448586E-03
 -7.398660481E-02 -1.000000047E-03 -4.985109344E-02 2.517441809E-01 2.715708455E-03
 -6.987496465E-02 -1.000000047E-03 -5.050787330E-02 2.487314194E-01 2.725053113E-03
 -6.469648331E-02 -1.000000047E-03 -5.131482705E-02 2.447857410E-01 2.729102969E-03
 -6.033908203E-02 -1.000000047E-03 -5.197657645E-02 2.418935299E-01 2.737247385E-03
 -5.512816086E-02 -1.000000047E-03 -5.274879932E-02 2.394253165E-01 2.744031837E-03
 -5.062766746E-02 -1.000000047E-03 -5.339858308E-02 2.369391918E-01 2.751536202E-03
 -4.534953833E-02 -1.000000047E-03 -5.414192006E-02 2.340566963E-01 2.758212853E-03
 -4.052333906E-02 -1.000000047E-03 -5.480351672E-02 2.309780717E-01 2.761819400E-03
 -3.519069031E-02 -1.000000047E-03 -5.551635846E-02 2.278687209E-01 2.763121389E-03
 -3.010573797E-02 -1.000000047E-03 -5.617685243E-02 2.256745845E-01 2.764165867E-03
 -2.455767430E-02 -1.000000047E-03 -5.687939376E-02 2.226716280E-01 2.764909528E-03
 -1.934364811E-02 -1.000000047E-03 -5.752035230E-02 2.205456197E-01 2.768174279E-03
 -1.361313183E-02 -1.000000047E-03 -5.820633471E-02 2.188183516E-01 2.771464642E-03
 -8.352547884E-03 -1.000000047E-03 -5.881783366E-02 2.179028988E-01 2.776416251E-03
 -2.323399531E-03 -1.000000047E-03 -5.949899182E-02 2.156162113E-01 2.778993221E-03
 2.973643597E-03 -1.000000047E-03 -6.008063257E-02 2.140477449E-01 2.781569259E-03
 9.244851768E-03 -1.000000047E-03 -6.074840203E-02 2.125670165E-01 2.780224429E-03
 1.455490850E-02 -1.000000047E-03 -6.129822880E-02 2.114688456E-01 2.777285874E-03
 2.108389325E-02 -1.000000047E-03 -6.195257977E-02 2.097413391E-01 2.772030188E-03
 2.652737126E-02 -1.000000047E-03 -6.248268858E-02 2.074319869E-01 2.764922800E-03
 3.321656585E-02 -1.000000047E-03 -6.311264634E-02 2.064866722E-01 2.754280111E-03
 3.875277564E-02 -1.000000047E-03 -6.361845136E-02 2.052523494E-01 2.743252320E-03
 4.564364627E-02 -1.000000047E-03 -6.422702968E-02 2.049602419E-01 2.728725551E-03
 5.154658854E-02 -1.000000047E-03 -6.473150849E-02 2.040037960E-01 2.714649076E-03
 5.868262425E-02 -1.000000047E-03 -6.532042474E-02 2.001363635E-01 2.695797710E-03
 6.490855664E-02 -1.000000047E-03 -6.581632048E-02 1.983186901E-01 2.677595709E-03
 7.229119539E-02 -1.000000047E-03 -6.638347358E-02 1.992612928E-01 2.653709147E-03
 7.860069722E-02 -1.000000047E-03 -6.685081869E-02 1.986650229E-01 2.634831704E-03
 8.618837595E-02 -1.000000047E-03 -6.739129126E-02 1.974301338E-01 2.614420373E-03
 9.256950021E-02 -1.000000047E-03 -6.782969832E-02 1.983089745E-01 2.597500803E-03
 1.005078852E-01 -1.000000047E-03 -6.835208088E-02 1.968283653E-01 2.583034569E-03
 1.072192490E-01 -1.000000047E-03 -6.877735257E-02 1.969674975E-01 2.563795075E-03
 1.154650003E-01 -1.000000047E-03 -6.927630305E-02 1.979451329E-01 2.545486670E-03
 1.222613156E-01 -1.000000047E-03 -6.967113912E-02 1.977920979E-01 2.526067430E-03
 1.308207363E-01 -1.000000047E-03 -7.014504820E-02 1.974919140E-01 2.502001822E-03
 1.376767606E-01 -1.000000047E-03 -7.050833106E-02 1.977013350E-01 2.480263356E-03
 1.465261132E-01 -1.000000047E-03 -7.095440477E-02 1.973230392E-01 2.453288296E-03
 1.536036134E-01 -1.000000047E-03 -7.129458338E-02 1.976558119E-01 2.428060398E-03
 1.627610624E-01 -1.000000047E-03 -7.171157002E-02 1.977466047E-01 2.399774268E-03
 1.703316420E-01 -1.000000047E-03 -7.203906029E-02 1.980600953E-01 2.374683972E-03
 1.799357533E-01 -1.000000047E-03 -7.243014872E-02 1.993646026E-01 2.346289344E-03
 1.878156960E-01 -1.000000047E-03 -7.273335755E-02 1.997566968E-01 2.320078900E-03
 1.977317333E-01 -1.000000047E-03 -7.309012115E-02 2.000408024E-01 2.288889838E-03
 2.057795078E-01 -1.000000047E-03 -7.336220145E-02 2.011230141E-01 2.260563429E-03
 2.160571069E-01 -1.000000047E-03 -7.368459553E-02 2.022862583E-01 2.227998106E-03
 2.244816124E-01 -1.000000047E-03 -7.393093407E-02 2.035913169E-01 2.198587405E-03
 2.351329774E-01 -1.000000047E-03 -7.421702892E-02 2.050384581E-01 2.163972240E-03
 2.439446747E-01 -1.000000047E-03 -7.443520427E-02 2.060632706E-01 2.131859772E-03
 2.553138435E-01 -1.000000047E-03 -7.468970120E-02 2.076295763E-01 2.095799660E-03
 2.657750249E-01 -1.000000047E-03 -7.490038872E-02 2.090208381E-01 2.061139094E-03
 2.776114047E-01 -1.000000047E-03 -7.511217892E-02 2.108486593E-01 2.019801410E-03
 2.877348065E-01 -1.000000047E-03 -7.526975870E-02 2.129994929E-01 1.981974579E-03
 3.000613749E-01 -1.000000047E-03 -7.543551922E-02 2.157285511E-01 1.941478113E-03
 3.106493652E-01 -1.000000047E-03 -7.555449009E-02 2.167350501E-01 1.903911354E-03
 3.233598769E-01 -1.000000047E-03 -7.567001134E-02 2.192218304E-01 1.862947014E-03
 3.342132866E-01 -1.000000047E-03 -7.574567944E-02 2.226450294E-01 1.827458269E-03
 3.472818732E-01 -1.000000047E-03 -7.580956072E-02 2.265723944E-01 1.787942951E-03
 3.580664098E-01 -1.000000047E-03 -7.584050298E-02 2.292999476E-01 1.753620338E-03
 3.715072274E-01 -1.000000047E-03 -7.585150748E-02 2.321761698E-01 1.714503742E-03
 3.830236793E-01 -1.000000047E-03 -7.583841681E-02 2.351874113E-01 1.680531306E-03
 3.971411288E-01 -1.000000047E-03 -7.579332590E-02 2.394857407E-01 1.641866285E-03
 4.090372324E-01 -1.000000047E-03 -7.573194057E-02 2.424148172E-01 1.609330298E-03
 4.236202836E-01 -1.000000047E-03 -7.562682778E-02 2.477105409E-01 1.573969261E-03
 4.357636273E-01 -1.000000047E-03 -7.551566511E-02 2.519528568E-01 1.544991159E-03
 4.508826733E-01 -1.000000047E-03 -7.534621656E-02 2.566554248E-01 1.513792085E-03
 4.635996521E-01 -1.000000047E-03 -7.517901808E-02 2.607148588E-01 1.488192123E-03
 4.791953862E-01 -1.000000047E-03 -7.494150102E-02 2.668563128E-01 1.459636725E-03
 4.921790659E-01 -1.000000047E-03 -7.471897453E-02 2.735100389E-01 1.437300700E-03
 5.084627271E-01 -1.000000047E-03 -7.440460473E-02 2.786430120E-01 1.412818558E-03
 5.218443871E-01 -1.000000047E-03 -7.412112504E-02 2.816756368E-01 1.393365674E-03