VARIABLES= iterations rms_res_mf1 rms_res_mf2 rms_res_mf3 rms_res_mf4 rms_res_mf5 rms_res_trb1 CL CD CDv CM
ZONE T = "USM3D-ME, MITAdapted_X0040K"
1  -999  -999  -999  -999  6.340808E-06  1.100987E-04  -3.325068E-03  1.580667E-01  1.580667E-01  -5.470049E-04
2  -999  -999  -999  -999  5.317917E-06  9.990171E-05  5.951298E-01  4.414767E-01  1.578585E-01  -1.540522E-01
3  -999  -999  -999  -999  4.113331E-06  8.422552E-05  1.313791E+00  8.014005E-01  1.574457E-01  -3.348381E-01
4  -999  -999  -999  -999  3.161834E-06  6.367646E-05  1.792372E+00  1.055068E+00  1.566232E-01  -4.545234E-01
5  -999  -999  -999  -999  2.611005E-06  3.685103E-05  1.836805E+00  1.077712E+00  1.549785E-01  -4.673054E-01
6  -999  -999  -999  -999  2.292352E-06  1.128301E-05  1.738118E+00  1.013771E+00  1.517187E-01  -4.438657E-01
7  -999  -999  -999  -999  1.968982E-06  6.748727E-06  1.680769E+00  9.483570E-01  1.457177E-01  -4.322707E-01
8  -999  -999  -999  -999  1.437370E-06  5.578361E-06  1.555442E+00  8.064347E-01  1.351804E-01  -4.001033E-01
9  -999  -999  -999  -999  6.410451E-07  4.939358E-06  1.247192E+00  5.252381E-01  1.187852E-01  -2.870500E-01
10  -999  -999  -999  -999  3.879311E-07  3.721790E-06  6.634649E-01  2.159625E-01  9.709470E-02  -7.195711E-02
11  -999  -999  -999  -999  2.069969E-07  3.509236E-06  2.554943E-01  8.040979E-02  7.388193E-02  3.050141E-02
12  -999  -999  -999  -999  1.148285E-07  4.406759E-06  2.780351E-01  7.640510E-02  5.362794E-02  7.462347E-03
13  -999  -999  -999  -999  1.485006E-07  4.769786E-06  3.023594E-01  7.066004E-02  3.834715E-02  -3.603640E-04
14  -999  -999  -999  -999  1.381969E-07  4.183094E-06  2.851175E-01  5.802608E-02  2.810542E-02  1.105030E-03
15  -999  -999  -999  -999  5.494927E-08  3.832565E-06  2.787444E-01  5.501124E-02  2.659851E-02  2.250353E-03
16  -999  -999  -999  -999  5.969618E-08  4.190598E-06  2.720435E-01  5.294862E-02  2.488544E-02  2.553522E-03
17  -999  -999  -999  -999  6.268778E-08  5.737587E-06  2.643195E-01  5.080392E-02  2.292672E-02  2.489990E-03
18  -999  -999  -999  -999  3.599787E-08  5.806810E-06  2.619168E-01  5.011225E-02  2.256580E-02  2.780686E-03
19  -999  -999  -999  -999  3.472039E-08  6.351290E-06  2.589442E-01  4.938768E-02  2.191574E-02  2.883870E-03
20  -999  -999  -999  -999  4.230023E-08  7.483523E-06  2.549899E-01  4.847177E-02  2.088415E-02  2.852570E-03
21  -999  -999  -999  -999  2.112788E-08  7.551559E-06  2.535451E-01  4.801743E-02  2.067666E-02  3.088760E-03
22  -999  -999  -999  -999  2.585584E-08  8.002773E-06  2.520439E-01  4.765889E-02  2.029014E-02  3.076784E-03
23  -999  -999  -999  -999  3.022182E-08  9.088854E-06  2.490372E-01  4.707054E-02  1.954067E-02  3.263218E-03
24  -999  -999  -999  -999  3.290899E-08  1.181086E-05  2.450799E-01  4.571870E-02  1.815572E-02  3.543585E-03
25  -999  -999  -999  -999  1.727915E-08  1.233032E-05  2.437045E-01  4.526175E-02  1.788865E-02  3.714254E-03
26  -999  -999  -999  -999  2.178973E-08  1.417889E-05  2.418452E-01  4.484245E-02  1.739619E-02  3.944894E-03
27  -999  -999  -999  -999  2.266907E-08  1.757248E-05  2.390816E-01  4.388364E-02  1.643489E-02  4.228360E-03
28  -999  -999  -999  -999  1.847026E-08  1.837533E-05  2.383906E-01  4.366763E-02  1.624751E-02  4.322129E-03
29  -999  -999  -999  -999  1.464708E-08  2.027081E-05  2.370096E-01  4.324421E-02  1.588155E-02  4.529774E-03
30  -999  -999  -999  -999  1.485473E-08  2.329411E-05  2.348619E-01  4.257517E-02  1.522603E-02  4.790280E-03
31  -999  -999  -999  -999  1.539338E-08  2.719938E-05  2.316682E-01  4.151605E-02  1.414296E-02  5.286216E-03
32  -999  -999  -999  -999  1.518964E-08  2.777311E-05  2.298215E-01  4.090489E-02  1.351122E-02  5.575750E-03
33  -999  -999  -999  -999  8.195586E-09  2.750534E-05  2.291650E-01  4.067917E-02  1.335973E-02  5.670741E-03
34  -999  -999  -999  -999  1.019877E-08  3.003379E-05  2.281090E-01  4.043022E-02  1.307090E-02  5.821812E-03
35  -999  -999  -999  -999  1.027566E-08  3.320489E-05  2.266747E-01  3.991065E-02  1.254238E-02  5.990079E-03
36  -999  -999  -999  -999  1.069269E-08  3.243350E-05  2.245466E-01  3.914923E-02  1.172599E-02  6.294781E-03
37  -999  -999  -999  -999  7.000090E-09  2.895979E-05  2.240277E-01  3.905576E-02  1.165703E-02  6.367521E-03
38  -999  -999  -999  -999  6.582049E-09  2.734556E-05  2.232751E-01  3.880759E-02  1.141410E-02  6.432238E-03
39  -999  -999  -999  -999  6.628744E-09  2.277032E-05  2.221258E-01  3.841970E-02  1.099959E-02  6.562002E-03
40  -999  -999  -999  -999  4.079069E-09  2.204160E-05  2.218288E-01  3.832212E-02  1.091863E-02  6.595092E-03
41  -999  -999  -999  -999  3.973102E-09  2.046066E-05  2.213845E-01  3.818485E-02  1.078206E-02  6.626813E-03
42  -999  -999  -999  -999  4.285687E-09  1.748425E-05  2.207274E-01  3.796871E-02  1.054800E-02  6.694436E-03
43  -999  -999  -999  -999  2.601145E-09  1.684113E-05  2.205609E-01  3.792361E-02  1.051809E-02  6.712695E-03
44  -999  -999  -999  -999  2.521152E-09  1.562338E-05  2.202692E-01  3.784995E-02  1.043983E-02  6.738192E-03
45  -999  -999  -999  -999  2.727662E-09  1.362975E-05  2.198615E-01  3.771367E-02  1.029821E-02  6.769296E-03
46  -999  -999  -999  -999  1.595917E-09  1.321556E-05  2.197589E-01  3.767165E-02  1.026824E-02  6.776450E-03
47  -999  -999  -999  -999  2.004949E-09  1.256628E-05  2.195915E-01  3.763390E-02  1.022157E-02  6.794766E-03
48  -999  -999  -999  -999  2.105514E-09  1.123203E-05  2.193478E-01  3.754969E-02  1.013278E-02  6.810708E-03
49  -999  -999  -999  -999  1.136428E-09  1.090973E-05  2.192662E-01  3.751744E-02  1.011139E-02  6.818595E-03
50  -999  -999  -999  -999  1.362816E-09  1.036426E-05  2.191658E-01  3.748821E-02  1.007810E-02  6.826758E-03
51  -999  -999  -999  -999  1.475286E-09  9.388349E-06  2.189847E-01  3.743116E-02  1.001752E-02  6.838364E-03
52  -999  -999  -999  -999  1.664377E-09  7.859649E-06  2.187092E-01  3.732953E-02  9.909083E-03  6.863845E-03
53  -999  -999  -999  -999  9.892847E-10  7.550959E-06  2.186391E-01  3.730593E-02  9.891803E-03  6.868361E-03
54  -999  -999  -999  -999  9.828380E-10  6.995277E-06  2.185248E-01  3.727438E-02  9.857340E-03  6.878465E-03
55  -999  -999  -999  -999  1.069432E-09  6.080339E-06  2.183518E-01  3.721110E-02  9.792264E-03  6.890444E-03
56  -999  -999  -999  -999  6.550478E-10  5.891535E-06  2.183088E-01  3.719644E-02  9.781906E-03  6.893596E-03
57  -999  -999  -999  -999  6.379725E-10  5.531740E-06  2.182357E-01  3.717551E-02  9.759790E-03  6.899657E-03
58  -999  -999  -999  -999  7.089322E-10  4.929525E-06  2.181232E-01  3.713490E-02  9.717625E-03  6.906374E-03
59  -999  -999  -999  -999  4.519440E-10  4.806203E-06  2.180943E-01  3.712383E-02  9.709250E-03  6.908431E-03
60  -999  -999  -999  -999  5.500390E-10  4.598864E-06  2.180505E-01  3.711169E-02  9.695372E-03  6.912130E-03
61  -999  -999  -999  -999  6.020841E-10  4.194313E-06  2.179741E-01  3.708610E-02  9.668191E-03  6.916864E-03
62  -999  -999  -999  -999  3.602251E-10  4.101647E-06  2.179526E-01  3.707660E-02  9.661801E-03  6.919276E-03
63  -999  -999  -999  -999  4.016482E-10  3.937298E-06  2.179240E-01  3.706646E-02  9.651369E-03  6.919857E-03
64  -999  -999  -999  -999  4.519732E-10  3.634671E-06  2.178688E-01  3.704965E-02  9.632210E-03  6.924406E-03
65  -999  -999  -999  -999  2.874189E-10  3.571599E-06  2.178546E-01  3.704293E-02  9.627921E-03  6.925513E-03
66  -999  -999  -999  -999  3.076540E-10  3.457332E-06  2.178324E-01  3.703510E-02  9.620482E-03  6.926302E-03
67  -999  -999  -999  -999  3.387652E-10  3.246410E-06  2.177927E-01  3.702306E-02  9.606698E-03  6.929166E-03
68  -999  -999  -999  -999  4.049426E-10  2.897347E-06  2.177263E-01  3.699780E-02  9.580719E-03  6.933613E-03
69  -999  -999  -999  -999  2.582192E-10  2.827339E-06  2.177104E-01  3.699199E-02  9.576175E-03  6.934854E-03
70  -999  -999  -999  -999  2.492798E-10  2.691277E-06  2.176828E-01  3.698313E-02  9.567308E-03  6.936952E-03
71  -999  -999  -999  -999  3.294764E-10  2.485690E-06  2.176375E-01  3.696802E-02  9.550760E-03  6.939910E-03
72  -999  -999  -999  -999  2.120233E-10  2.430682E-06  2.176263E-01  3.696268E-02  9.546867E-03  6.941205E-03
73  -999  -999  -999  -999  2.327119E-10  2.338437E-06  2.176090E-01  3.695658E-02  9.540648E-03  6.941930E-03
74  -999  -999  -999  -999  2.575229E-10  2.166721E-06  2.175735E-01  3.694611E-02  9.529129E-03  6.945155E-03
75  -999  -999  -999  -999  1.748780E-10  2.129293E-06  2.175666E-01  3.694227E-02  9.526524E-03  6.945517E-03
76  -999  -999  -999  -999  1.848747E-10  2.062960E-06  2.175538E-01  3.693757E-02  9.522051E-03  6.946050E-03
77  -999  -999  -999  -999  2.005687E-10  1.939486E-06  2.175299E-01  3.693008E-02  9.513741E-03  6.947903E-03
78  -999  -999  -999  -999  1.482279E-10  1.913968E-06  2.175242E-01  3.692748E-02  9.511919E-03  6.948315E-03
79  -999  -999  -999  -999  1.533919E-10  1.867328E-06  2.175142E-01  3.692394E-02  9.508653E-03  6.948876E-03
80  -999  -999  -999  -999  1.612475E-10  1.778298E-06  2.174963E-01  3.691829E-02  9.502530E-03  6.950126E-03
81  -999  -999  -999  -999  1.934547E-10  1.623403E-06  2.174641E-01  3.690715E-02  9.490845E-03  6.952631E-03
82  -999  -999  -999  -999  1.345737E-10  1.591838E-06  2.174570E-01  3.690417E-02  9.488717E-03  6.953188E-03
83  -999  -999  -999  -999  1.501085E-10  1.535298E-06  2.174458E-01  3.690037E-02  9.484751E-03  6.953725E-03
84  -999  -999  -999  -999  1.671774E-10  1.430769E-06  2.174226E-01  3.689316E-02  9.476988E-03  6.955720E-03
85  -999  -999  -999  -999  1.182834E-10  1.407031E-06  2.174173E-01  3.689067E-02  9.475231E-03  6.956179E-03
86  -999  -999  -999  -999  1.240095E-10  1.365467E-06  2.174084E-01  3.688749E-02  9.472216E-03  6.956712E-03
87  -999  -999  -999  -999  1.331989E-10  1.285149E-06  2.173916E-01  3.688227E-02  9.466610E-03  6.958109E-03
88  -999  -999  -999  -999  1.016963E-10  1.267970E-06  2.173876E-01  3.688058E-02  9.465381E-03  6.958418E-03
89  -999  -999  -999  -999  1.047880E-10  1.237043E-06  2.173810E-01  3.687822E-02  9.463183E-03  6.958784E-03
90  -999  -999  -999  -999  1.091321E-10  1.177419E-06  2.173689E-01  3.687436E-02  9.459066E-03  6.959664E-03
91  -999  -999  -999  -999  9.000971E-11  1.165301E-06  2.173660E-01  3.687322E-02  9.458184E-03  6.959918E-03
92  -999  -999  -999  -999  9.170984E-11  1.142662E-06  2.173608E-01  3.687139E-02  9.456555E-03  6.960349E-03
93  -999  -999  -999  -999  1.071471E-10  1.102006E-06  2.173522E-01  3.686876E-02  9.453577E-03  6.960946E-03
94  -999  -999  -999  -999  1.205988E-10  1.027026E-06  2.173350E-01  3.686333E-02  9.447872E-03  6.962306E-03
95  -999  -999  -999  -999  8.683617E-11  1.009612E-06  2.173309E-01  3.686154E-02  9.446584E-03  6.962717E-03
96  -999  -999  -999  -999  9.083058E-11  9.802270E-07  2.173244E-01  3.685922E-02  9.444381E-03  6.963129E-03
97  -999  -999  -999  -999  9.686448E-11  9.231740E-07  2.173115E-01  3.685535E-02  9.440289E-03  6.964281E-03
98  -999  -999  -999  -999  7.542762E-11  9.108672E-07  2.173086E-01  3.685413E-02  9.439390E-03  6.964481E-03
99  -999  -999  -999  -999  7.748844E-11  8.888609E-07  2.173039E-01  3.685241E-02  9.437789E-03  6.964751E-03
100  -999  -999  -999  -999  8.048684E-11  8.463398E-07  2.172948E-01  3.684956E-02  9.434792E-03  6.965447E-03
101  -999  -999  -999  -999  6.702260E-11  8.375681E-07  2.172925E-01  3.684872E-02  9.434149E-03  6.965662E-03
102  -999  -999  -999  -999  6.813217E-11  8.214848E-07  2.172886E-01  3.684739E-02  9.432963E-03  6.966001E-03
103  -999  -999  -999  -999  6.878810E-11  7.898563E-07  2.172813E-01  3.684516E-02  9.430722E-03  6.966489E-03
104  -999  -999  -999  -999  9.033228E-11  7.411357E-07  2.172681E-01  3.684131E-02  9.426577E-03  6.967684E-03
105  -999  -999  -999  -999  6.383437E-11  7.276106E-07  2.172653E-01  3.684001E-02  9.425629E-03  6.967936E-03
106  -999  -999  -999  -999  6.672761E-11  7.057688E-07  2.172606E-01  3.683836E-02  9.424040E-03  6.968226E-03
107  -999  -999  -999  -999  7.140611E-11  6.643892E-07  2.172505E-01  3.683552E-02  9.421084E-03  6.969175E-03
108  -999  -999  -999  -999  5.587121E-11  6.552137E-07  2.172487E-01  3.683464E-02  9.420432E-03  6.969256E-03
109  -999  -999  -999  -999  5.725584E-11  6.393283E-07  2.172450E-01  3.683339E-02  9.419276E-03  6.969508E-03
110  -999  -999  -999  -999  5.932776E-11  6.087353E-07  2.172381E-01  3.683130E-02  9.417108E-03  6.970066E-03
111  -999  -999  -999  -999  4.974152E-11  6.022255E-07  2.172362E-01  3.683069E-02  9.416642E-03  6.970254E-03
112  -999  -999  -999  -999  5.050585E-11  5.906362E-07  2.172333E-01  3.682974E-02  9.415784E-03  6.970478E-03
113  -999  -999  -999  -999  5.093615E-11  5.677416E-07  2.172276E-01  3.682810E-02  9.414163E-03  6.970907E-03
114  -999  -999  -999  -999  4.544734E-11  5.630623E-07  2.172266E-01  3.682773E-02  9.413821E-03  6.970993E-03
115  -999  -999  -999  -999  4.592217E-11  5.543968E-07  2.172243E-01  3.682699E-02  9.413178E-03  6.971229E-03
116  -999  -999  -999  -999  5.041265E-11  5.383012E-07  2.172206E-01  3.682588E-02  9.411986E-03  6.971465E-03
117  -999  -999  -999  -999  5.508976E-11  5.084038E-07  2.172125E-01  3.682363E-02  9.409685E-03  6.972185E-03
118  -999  -999  -999  -999  4.349247E-11  5.015247E-07  2.172110E-01  3.682297E-02  9.409177E-03  6.972303E-03
119  -999  -999  -999  -999  4.457635E-11  4.898556E-07  2.172079E-01  3.682199E-02  9.408275E-03  6.972548E-03
120  -999  -999  -999  -999  4.621951E-11  4.669701E-07  2.172022E-01  3.682033E-02  9.406584E-03  6.973035E-03
121  -999  -999  -999  -999  3.905603E-11  4.620027E-07  2.172007E-01  3.681986E-02  9.406220E-03  6.973185E-03
122  -999  -999  -999  -999  3.962485E-11  4.531660E-07  2.171984E-01  3.681912E-02  9.405552E-03  6.973357E-03
123  -999  -999  -999  -999  3.999702E-11  4.356920E-07  2.171939E-01  3.681783E-02  9.404291E-03  6.973715E-03
124  -999  -999  -999  -999  3.574402E-11  4.320808E-07  2.171931E-01  3.681755E-02  9.404025E-03  6.973776E-03
125  -999  -999  -999  -999  3.608105E-11  4.254145E-07  2.171912E-01  3.681697E-02  9.403526E-03  6.973974E-03
126  -999  -999  -999  -999  3.942860E-11  4.128703E-07  2.171882E-01  3.681610E-02  9.402601E-03  6.974187E-03
127  -999  -999  -999  -999  4.382372E-11  3.899068E-07  2.171818E-01  3.681436E-02  9.400816E-03  6.974727E-03
128  -999  -999  -999  -999  3.416743E-11  3.844221E-07  2.171804E-01  3.681383E-02  9.400421E-03  6.974881E-03
129  -999  -999  -999  -999  3.501207E-11  3.754260E-07  2.171779E-01  3.681307E-02  9.399723E-03  6.975085E-03
130  -999  -999  -999  -999  3.629180E-11  3.579955E-07  2.171732E-01  3.681177E-02  9.398413E-03  6.975510E-03
131  -999  -999  -999  -999  3.068359E-11  3.541212E-07  2.171720E-01  3.681140E-02  9.398131E-03  6.975621E-03
132  -999  -999  -999  -999  3.110579E-11  3.474409E-07  2.171702E-01  3.681083E-02  9.397614E-03  6.975747E-03
133  -999  -999  -999  -999  3.136647E-11  3.340558E-07  2.171665E-01  3.680983E-02  9.396639E-03  6.976055E-03
134  -999  -999  -999  -999  2.808911E-11  3.312619E-07  2.171659E-01  3.680961E-02  9.396433E-03  6.976091E-03
135  -999  -999  -999  -999  2.834130E-11  3.261717E-07  2.171644E-01  3.680916E-02  9.396047E-03  6.976257E-03
136  -999  -999  -999  -999  3.094979E-11  3.165807E-07  2.171619E-01  3.680849E-02  9.395334E-03  6.976444E-03
137  -999  -999  -999  -999  3.511360E-11  2.989681E-07  2.171568E-01  3.680712E-02  9.393955E-03  6.976885E-03
138  -999  -999  -999  -999  2.684021E-11  2.947736E-07  2.171556E-01  3.680672E-02  9.393649E-03  6.977015E-03
139  -999  -999  -999  -999  2.750127E-11  2.878642E-07  2.171536E-01  3.680613E-02  9.393110E-03  6.977181E-03
140  -999  -999  -999  -999  2.851909E-11  2.742721E-07  2.171496E-01  3.680512E-02  9.392099E-03  6.977553E-03
141  -999  -999  -999  -999  2.410402E-11  2.712115E-07  2.171488E-01  3.680483E-02  9.391881E-03  6.977624E-03
142  -999  -999  -999  -999  2.443823E-11  2.660618E-07  2.171473E-01  3.680439E-02  9.391482E-03  6.977728E-03
143  -999  -999  -999  -999  2.464817E-11  2.557987E-07  2.171443E-01  3.680362E-02  9.390731E-03  6.977976E-03
144  -999  -999  -999  -999  2.206385E-11  2.536311E-07  2.171439E-01  3.680344E-02  9.390572E-03  6.978010E-03
145  -999  -999  -999  -999  2.225608E-11  2.497455E-07  2.171426E-01  3.680309E-02  9.390274E-03  6.978157E-03
146  -999  -999  -999  -999  2.427699E-11  2.424124E-07  2.171405E-01  3.680257E-02  9.389724E-03  6.978327E-03
147  -999  -999  -999  -999  2.834723E-11  2.289394E-07  2.171363E-01  3.680152E-02  9.388663E-03  6.978684E-03
148  -999  -999  -999  -999  2.110100E-11  2.256711E-07  2.171353E-01  3.680120E-02  9.388427E-03  6.978804E-03
149  -999  -999  -999  -999  2.159770E-11  2.204207E-07  2.171338E-01  3.680074E-02  9.388012E-03  6.978928E-03
150  -999  -999  -999  -999  2.249440E-11  2.099752E-07  2.171305E-01  3.679996E-02  9.387234E-03  6.979241E-03
151  -999  -999  -999  -999  1.893818E-11  2.075920E-07  2.171299E-01  3.679974E-02  9.387066E-03  6.979286E-03
152  -999  -999  -999  -999  1.919248E-11  2.035973E-07  2.171287E-01  3.679940E-02  9.386760E-03  6.979375E-03
153  -999  -999  -999  -999  1.939421E-11  1.958211E-07  2.171264E-01  3.679881E-02  9.386183E-03  6.979555E-03
154  -999  -999  -999  -999  1.734948E-11  1.941541E-07  2.171259E-01  3.679867E-02  9.386061E-03  6.979611E-03
155  -999  -999  -999  -999  1.749389E-11  1.911818E-07  2.171248E-01  3.679839E-02  9.385832E-03  6.979732E-03
156  -999  -999  -999  -999  1.742644E-11  1.852358E-07  2.171230E-01  3.679794E-02  9.385396E-03  6.979875E-03
157  -999  -999  -999  -999  1.621908E-11  1.840025E-07  2.171226E-01  3.679784E-02  9.385305E-03  6.979912E-03
158  -999  -999  -999  -999  1.630194E-11  1.817134E-07  2.171218E-01  3.679764E-02  9.385131E-03  6.979986E-03
159  -999  -999  -999  -999  1.722205E-11  1.773270E-07  2.171205E-01  3.679732E-02  9.384807E-03  6.980086E-03
160  -999  -999  -999  -999  1.833025E-11  1.691273E-07  2.171177E-01  3.679669E-02  9.384177E-03  6.980357E-03
161  -999  -999  -999  -999  1.551973E-11  1.672515E-07  2.171172E-01  3.679651E-02  9.384041E-03  6.980390E-03
162  -999  -999  -999  -999  1.572829E-11  1.641055E-07  2.171162E-01  3.679624E-02  9.383792E-03  6.980471E-03
163  -999  -999  -999  -999  1.592349E-11  1.579006E-07  2.171143E-01  3.679576E-02  9.383321E-03  6.980630E-03
164  -999  -999  -999  -999  1.431236E-11  1.565458E-07  2.171138E-01  3.679564E-02  9.383221E-03  6.980690E-03
165  -999  -999  -999  -999  1.442843E-11  1.541418E-07  2.171129E-01  3.679541E-02  9.383035E-03  6.980786E-03
166  -999  -999  -999  -999  1.438959E-11  1.493206E-07  2.171113E-01  3.679504E-02  9.382680E-03  6.980915E-03
167  -999  -999  -999  -999  1.339930E-11  1.483072E-07  2.171111E-01  3.679496E-02  9.382606E-03  6.980938E-03
168  -999  -999  -999  -999  1.346494E-11  1.464445E-07  2.171104E-01  3.679480E-02  9.382465E-03  6.981005E-03
169  -999  -999  -999  -999  1.420884E-11  1.429005E-07  2.171093E-01  3.679454E-02  9.382201E-03  6.981094E-03
170  -999  -999  -999  -999  1.515662E-11  1.362130E-07  2.171069E-01  3.679401E-02  9.381690E-03  6.981327E-03
171  -999  -999  -999  -999  1.283413E-11  1.347075E-07  2.171065E-01  3.679388E-02  9.381579E-03  6.981355E-03
172  -999  -999  -999  -999  1.301440E-11  1.321769E-07  2.171057E-01  3.679366E-02  9.381377E-03  6.981427E-03
173  -999  -999  -999  -999  1.320012E-11  1.271510E-07  2.171040E-01  3.679326E-02  9.380995E-03  6.981578E-03
174  -999  -999  -999  -999  1.184783E-11  1.260447E-07  2.171036E-01  3.679316E-02  9.380914E-03  6.981628E-03
175  -999  -999  -999  -999  1.193416E-11  1.241169E-07  2.171028E-01  3.679298E-02  9.380763E-03  6.981699E-03
176  -999  -999  -999  -999  1.190299E-11  1.202202E-07  2.171015E-01  3.679268E-02  9.380475E-03  6.981813E-03
177  -999  -999  -999  -999  1.110755E-11  1.194029E-07  2.171013E-01  3.679262E-02  9.380415E-03  6.981830E-03
178  -999  -999  -999  -999  1.116129E-11  1.179020E-07  2.171007E-01  3.679248E-02  9.380301E-03  6.981889E-03
179  -999  -999  -999  -999  1.175125E-11  1.150428E-07  2.170998E-01  3.679227E-02  9.380088E-03  6.981969E-03
180  -999  -999  -999  -999  1.268274E-11  1.097289E-07  2.170978E-01  3.679185E-02  9.379674E-03  6.982150E-03
181  -999  -999  -999  -999  1.064966E-11  1.084567E-07  2.170975E-01  3.679174E-02  9.379584E-03  6.982187E-03
182  -999  -999  -999  -999  1.079321E-11  1.063913E-07  2.170967E-01  3.679156E-02  9.379421E-03  6.982257E-03
183  -999  -999  -999  -999  1.094473E-11  1.023335E-07  2.170953E-01  3.679124E-02  9.379113E-03  6.982391E-03
184  -999  -999  -999  -999  9.847575E-12  1.014363E-07  2.170949E-01  3.679115E-02  9.379047E-03  6.982433E-03
185  -999  -999  -999  -999  9.908849E-12  9.987564E-08  2.170943E-01  3.679101E-02  9.378925E-03  6.982489E-03
186  -999  -999  -999  -999  9.897135E-12  9.671050E-08  2.170932E-01  3.679077E-02  9.378693E-03  6.982589E-03
187  -999  -999  -999  -999  9.243546E-12  9.604160E-08  2.170930E-01  3.679071E-02  9.378644E-03  6.982603E-03
188  -999  -999  -999  -999  9.284002E-12  9.481594E-08  2.170925E-01  3.679060E-02  9.378552E-03  6.982656E-03
189  -999  -999  -999  -999  9.765048E-12  9.249955E-08  2.170917E-01  3.679043E-02  9.378380E-03  6.982723E-03
190  -999  -999  -999  -999  1.063318E-11  8.826904E-08  2.170901E-01  3.679009E-02  9.378046E-03  6.982874E-03
191  -999  -999  -999  -999  8.867579E-12  8.719766E-08  2.170897E-01  3.679000E-02  9.377974E-03  6.982916E-03
192  -999  -999  -999  -999  8.987570E-12  8.552238E-08  2.170891E-01  3.678985E-02  9.377842E-03  6.982975E-03
193  -999  -999  -999  -999  9.117194E-12  8.224349E-08  2.170878E-01  3.678959E-02  9.377594E-03  6.983092E-03
194  -999  -999  -999  -999  8.220625E-12  8.150937E-08  2.170875E-01  3.678953E-02  9.377541E-03  6.983125E-03
195  -999  -999  -999  -999  8.269938E-12  8.023098E-08  2.170871E-01  3.678941E-02  9.377442E-03  6.983171E-03
196  -999  -999  -999  -999  8.262445E-12  7.765886E-08  2.170861E-01  3.678921E-02  9.377255E-03  6.983258E-03
197  -999  -999  -999  -999  7.731786E-12  7.711211E-08  2.170859E-01  3.678917E-02  9.377216E-03  6.983270E-03
198  -999  -999  -999  -999  7.759886E-12  7.613529E-08  2.170855E-01  3.678908E-02  9.377142E-03  6.983316E-03
199  -999  -999  -999  -999  8.148908E-12  7.425872E-08  2.170849E-01  3.678894E-02  9.377003E-03  6.983372E-03
200  -999  -999  -999  -999  9.020253E-12  7.085644E-08  2.170835E-01  3.678867E-02  9.376736E-03  6.983501E-03
201  -999  -999  -999  -999  3.597472E-06  6.996362E-08  2.165137E-01  3.663525E-02  9.377458E-03  7.072590E-03
202  -999  -999  -999  -999  2.521563E-06  3.095165E-05  2.165932E-01  3.663969E-02  9.377076E-03  7.057975E-03
203  -999  -999  -999  -999  1.481169E-06  6.997675E-05  2.166892E-01  3.663956E-02  9.376333E-03  7.030628E-03
204  -999  -999  -999  -999  7.676069E-07  1.073880E-04  2.165692E-01  3.653080E-02  9.374864E-03  7.026374E-03
205  -999  -999  -999  -999  4.346915E-07  1.331075E-04  2.159364E-01  3.600641E-02  9.371960E-03  7.133367E-03
206  -999  -999  -999  -999  2.916070E-07  1.420595E-04  2.145690E-01  3.454571E-02  9.366326E-03  7.479747E-03
207  -999  -999  -999  -999  2.106024E-07  1.359712E-04  2.113646E-01  3.167751E-02  9.355744E-03  8.662419E-03
208  -999  -999  -999  -999  1.215982E-07  1.206180E-04  2.042769E-01  2.696236E-02  9.336665E-03  1.214307E-02
209  -999  -999  -999  -999  9.393135E-08  1.081347E-04  1.977089E-01  2.134307E-02  9.305246E-03  1.589195E-02
210  -999  -999  -999  -999  9.194535E-08  1.107275E-04  1.935538E-01  1.690731E-02  9.259854E-03  1.559420E-02
211  -999  -999  -999  -999  7.442848E-08  1.338828E-04  1.908757E-01  1.790550E-02  9.208072E-03  1.452138E-02
212  -999  -999  -999  -999  7.180815E-08  1.495522E-04  1.956486E-01  2.110493E-02  9.156235E-03  1.394068E-02
213  -999  -999  -999  -999  3.785068E-08  1.255392E-04  1.985218E-01  2.129799E-02  9.132665E-03  1.416365E-02
214  -999  -999  -999  -999  4.941037E-08  7.440196E-05  2.001249E-01  2.062887E-02  9.190995E-03  1.445658E-02
215  -999  -999  -999  -999  1.644496E-08  3.299269E-05  2.039465E-01  2.063248E-02  9.378498E-03  1.431620E-02
216  -999  -999  -999  -999  1.134527E-08  2.664037E-05  2.049135E-01  2.067571E-02  9.423363E-03  1.425395E-02
217  -999  -999  -999  -999  4.544767E-09  2.574806E-05  2.050676E-01  2.068216E-02  9.431966E-03  1.424007E-02
218  -999  -999  -999  -999  5.585902E-09  2.411120E-05  2.054475E-01  2.069937E-02  9.451193E-03  1.421612E-02
219  -999  -999  -999  -999  8.714317E-09  2.100384E-05  2.059991E-01  2.069816E-02  9.491696E-03  1.420417E-02
220  -999  -999  -999  -999  6.881382E-09  2.446650E-05  2.070790E-01  2.069924E-02  9.571276E-03  1.412756E-02
221  -999  -999  -999  -999  5.891517E-09  1.958357E-05  2.091713E-01  2.074890E-02  9.698481E-03  1.388694E-02
222  -999  -999  -999  -999  3.222776E-09  1.993587E-05  2.095940E-01  2.079629E-02  9.723860E-03  1.383854E-02
223  -999  -999  -999  -999  3.487586E-09  2.261778E-05  2.103669E-01  2.082625E-02  9.774847E-03  1.375154E-02
224  -999  -999  -999  -999  1.882160E-09  2.318636E-05  2.105329E-01  2.082859E-02  9.785083E-03  1.372656E-02
225  -999  -999  -999  -999  2.956965E-09  2.437438E-05  2.108452E-01  2.084005E-02  9.804883E-03  1.368716E-02
226  -999  -999  -999  -999  3.720997E-09  2.671085E-05  2.114205E-01  2.087130E-02  9.844107E-03  1.360512E-02
227  -999  -999  -999  -999  4.957304E-09  2.978514E-05  2.125997E-01  2.092389E-02  9.917638E-03  1.340755E-02
228  -999  -999  -999  -999  2.429093E-09  3.011410E-05  2.128117E-01  2.093922E-02  9.929277E-03  1.338131E-02
229  -999  -999  -999  -999  3.730214E-09  3.084360E-05  2.132342E-01  2.096261E-02  9.954042E-03  1.331189E-02
230  -999  -999  -999  -999  5.643457E-09  3.140340E-05  2.140108E-01  2.100427E-02  1.000373E-02  1.317775E-02
231  -999  -999  -999  -999  5.646142E-09  2.960457E-05  2.155694E-01  2.108669E-02  1.008478E-02  1.288313E-02
232  -999  -999  -999  -999  6.204439E-09  2.388672E-05  2.180118E-01  2.125418E-02  1.022097E-02  1.238815E-02
233  -999  -999  -999  -999  8.537441E-09  1.695129E-05  2.208841E-01  2.147119E-02  1.037726E-02  1.175590E-02
234  -999  -999  -999  -999  6.202291E-09  6.915319E-06  2.234016E-01  2.169177E-02  1.050242E-02  1.114553E-02
235  -999  -999  -999  -999  2.027962E-09  3.242939E-06  2.238572E-01  2.173233E-02  1.052685E-02  1.103611E-02
236  -999  -999  -999  -999  8.881080E-10  3.102242E-06  2.239526E-01  2.174423E-02  1.053190E-02  1.101339E-02
237  -999  -999  -999  -999  9.633748E-10  2.885409E-06  2.240999E-01  2.175575E-02  1.053812E-02  1.097747E-02
238  -999  -999  -999  -999  9.437920E-10  2.229894E-06  2.243448E-01  2.177668E-02  1.054941E-02  1.091619E-02
239  -999  -999  -999  -999  5.309330E-10  2.097335E-06  2.243892E-01  2.178095E-02  1.055098E-02  1.090437E-02
240  -999  -999  -999  -999  6.944896E-10  1.867476E-06  2.244667E-01  2.178744E-02  1.055492E-02  1.088518E-02
241  -999  -999  -999  -999  6.076347E-10  1.478482E-06  2.246081E-01  2.180120E-02  1.056242E-02  1.084884E-02
242  -999  -999  -999  -999  3.151741E-10  1.396548E-06  2.246333E-01  2.180304E-02  1.056324E-02  1.084246E-02
243  -999  -999  -999  -999  3.990551E-10  1.268645E-06  2.246795E-01  2.180753E-02  1.056561E-02  1.083070E-02
244  -999  -999  -999  -999  3.767648E-10  1.068134E-06  2.247596E-01  2.181547E-02  1.057007E-02  1.080984E-02
245  -999  -999  -999  -999  1.909657E-10  1.027130E-06  2.247751E-01  2.181708E-02  1.057102E-02  1.080583E-02
246  -999  -999  -999  -999  2.355566E-10  9.542551E-07  2.248038E-01  2.182002E-02  1.057253E-02  1.079841E-02
247  -999  -999  -999  -999  2.501412E-10  8.361033E-07  2.248552E-01  2.182507E-02  1.057530E-02  1.078523E-02
248  -999  -999  -999  -999  2.914197E-10  6.563354E-07  2.249287E-01  2.183275E-02  1.057980E-02  1.076601E-02
249  -999  -999  -999  -999  1.688618E-10  6.286849E-07  2.249443E-01  2.183440E-02  1.058053E-02  1.076186E-02
250  -999  -999  -999  -999  1.386784E-10  5.700620E-07  2.249706E-01  2.183714E-02  1.058212E-02  1.075520E-02
251  -999  -999  -999  -999  1.509641E-10  4.649056E-07  2.250127E-01  2.184172E-02  1.058480E-02  1.074456E-02
252  -999  -999  -999  -999  9.109755E-11  4.474012E-07  2.250203E-01  2.184253E-02  1.058527E-02  1.074252E-02
253  -999  -999  -999  -999  1.295309E-10  4.143593E-07  2.250344E-01  2.184414E-02  1.058623E-02  1.073890E-02
254  -999  -999  -999  -999  1.359210E-10  3.546039E-07  2.250609E-01  2.184720E-02  1.058802E-02  1.073222E-02
255  -999  -999  -999  -999  6.349722E-11  3.415110E-07  2.250650E-01  2.184763E-02  1.058828E-02  1.073112E-02
256  -999  -999  -999  -999  8.087723E-11  3.182014E-07  2.250739E-01  2.184862E-02  1.058884E-02  1.072889E-02
257  -999  -999  -999  -999  8.285709E-11  2.805034E-07  2.250895E-01  2.185044E-02  1.058991E-02  1.072490E-02
258  -999  -999  -999  -999  3.891165E-11  2.722757E-07  2.250924E-01  2.185075E-02  1.059012E-02  1.072415E-02
259  -999  -999  -999  -999  4.827742E-11  2.573886E-07  2.250982E-01  2.185148E-02  1.059052E-02  1.072270E-02
260  -999  -999  -999  -999  4.933200E-11  2.324074E-07  2.251088E-01  2.185275E-02  1.059129E-02  1.072009E-02
261  -999  -999  -999  -999  2.558293E-11  2.276584E-07  2.251103E-01  2.185292E-02  1.059142E-02  1.071967E-02
262  -999  -999  -999  -999  3.968778E-11  2.191379E-07  2.251142E-01  2.185338E-02  1.059167E-02  1.071872E-02
263  -999  -999  -999  -999  6.034698E-11  2.031939E-07  2.251210E-01  2.185421E-02  1.059218E-02  1.071697E-02
264  -999  -999  -999  -999  6.060883E-11  1.755896E-07  2.251330E-01  2.185574E-02  1.059314E-02  1.071400E-02
265  -999  -999  -999  -999  2.959210E-11  1.699056E-07  2.251352E-01  2.185602E-02  1.059329E-02  1.071346E-02
266  -999  -999  -999  -999  3.863149E-11  1.597796E-07  2.251393E-01  2.185654E-02  1.059361E-02  1.071245E-02
267  -999  -999  -999  -999  4.140748E-11  1.434259E-07  2.251472E-01  2.185756E-02  1.059423E-02  1.071052E-02