TITLE     = "Surface mesh and solution"
VARIABLES = "x"
"y"
"z"
"cfx"
"Cp"
ZONE T="Slice: Y=-0.001"
STRANDID=0, SOLUTIONTIME=0
Nodes=804, Elements=803, ZONETYPE=FELineSeg
DATAPACKING=POINT
DT=(DOUBLE DOUBLE DOUBLE DOUBLE DOUBLE )
0.5210317400	-0.0009999500	-0.0164752170	0.0007789890	0.2414931100
0.5247649000	-0.0009999500	-0.0172173790	0.0007686644	0.2441632900
0.5284891700	-0.0009999500	-0.0179598440	0.0007597404	0.2468542300
0.5322005200	-0.0009999500	-0.0187017580	0.0007469269	0.2495505200
0.5358938000	-0.0009999500	-0.0194420870	0.0007331807	0.2521711300
0.5395636000	-0.0009999500	-0.0201797150	0.0007294991	0.2548187100
0.5432047800	-0.0009999500	-0.0209135730	0.0007264573	0.2574905800
0.5468132500	-0.0009999500	-0.0216427630	0.0007176138	0.2601048900
0.5503860100	-0.0009999500	-0.0223666430	0.0007082199	0.2627143900
0.5539216400	-0.0009999500	-0.0230848810	0.0006997293	0.2653045400
0.5574205500	-0.0009999500	-0.0237974860	0.0006874692	0.2678772200
0.5608843600	-0.0009999500	-0.0245047510	0.0006747206	0.2703894400
0.5643157400	-0.0009999500	-0.0252071600	0.0006714043	0.2729186400
0.5677178500	-0.0009999500	-0.0259053110	0.0006674873	0.2754809900
0.5710940400	-0.0009999500	-0.0265998690	0.0006583904	0.2779842300
0.5744479300	-0.0009999500	-0.0272915440	0.0006453510	0.2804757700
0.5777828100	-0.0009999500	-0.0279809740	0.0006334451	0.2829480800
0.5811011800	-0.0009999500	-0.0286686610	0.0006257004	0.2854650000
0.5844051200	-0.0009999500	-0.0293550190	0.0006146401	0.2879599900
0.5876964300	-0.0009999500	-0.0300404020	0.0006081730	0.2904394600
0.5909763600	-0.0009999500	-0.0307250510	0.0006034018	0.2929685400
0.5942457300	-0.0009999500	-0.0314091370	0.0005938864	0.2954685400
0.5975049100	-0.0009999500	-0.0320927350	0.0005847864	0.2979790300
0.6007537800	-0.0009999500	-0.0327757890	0.0005760602	0.3004909500
0.6039910900	-0.0009999500	-0.0334580390	0.0005677623	0.3030162500
0.6072143300	-0.0009999500	-0.0341389370	0.0005608011	0.3055582600
0.6104198700	-0.0009999500	-0.0348176960	0.0005499185	0.3080957500
0.6136020400	-0.0009999500	-0.0354930830	0.0005356930	0.3105928900
0.6167537600	-0.0009999500	-0.0361635870	0.0005281427	0.3131153600
0.6198669700	-0.0009999500	-0.0368274260	0.0005216722	0.3156706100
0.6229319000	-0.0009999500	-0.0374824630	0.0005112307	0.3181766000
0.6259381200	-0.0009999500	-0.0381263980	0.0005009740	0.3206434200
0.6288757300	-0.0009999500	-0.0387570340	0.0004908166	0.3230744600
0.6317351500	-0.0009999500	-0.0393721980	0.0004805818	0.3254582900
0.6345085500	-0.0009999500	-0.0399701150	0.0004699884	0.3277855500
0.6371910000	-0.0009999500	-0.0405496100	0.0004589870	0.3300471600
0.6397795100	-0.0009999500	-0.0411099080	0.0004477988	0.3322388200
0.6408692000	-0.0009999500	-0.0413462180	0.0004428340	0.3331638600
0.6422851100	-0.0009999500	-0.0416532790	0.0004390787	0.3343768400
0.6447323600	-0.0009999500	-0.0421850010	0.0004338870	0.3364917900
0.6471750700	-0.0009999500	-0.0427167150	0.0004306360	0.3386116900
0.6495930600	-0.0009999500	-0.0432440080	0.0004285242	0.3407410100
0.6519794500	-0.0009999500	-0.0437653400	0.0004259902	0.3428702400
0.6543261400	-0.0009999500	-0.0442789270	0.0004216223	0.3449904300
0.6566277100	-0.0009999500	-0.0447835290	0.0004148303	0.3470799600
0.6588780300	-0.0009999500	-0.0452777450	0.0004058863	0.3491227300
0.6610707000	-0.0009999500	-0.0457601170	0.0003956582	0.3511157300
0.6632008600	-0.0009999500	-0.0462295040	0.0003850505	0.3530588200
0.6652653200	-0.0009999500	-0.0466851440	0.0003746898	0.3549513800
0.6672623200	-0.0009999500	-0.0471265840	0.0003648416	0.3567930800
0.6691920800	-0.0009999500	-0.0475538040	0.0003554322	0.3585862200
0.6710567500	-0.0009999500	-0.0479672030	0.0003462926	0.3603290900
0.6728592500	-0.0009999500	-0.0483673890	0.0003371987	0.3620240700
0.6746031600	-0.0009999500	-0.0487551020	0.0003278859	0.3636776200
0.6762924200	-0.0009999500	-0.0491311590	0.0003185867	0.3652873900
0.6779311300	-0.0009999500	-0.0494964380	0.0003097829	0.3668670400
0.6795230500	-0.0009999500	-0.0498517190	0.0003015075	0.3683918400
0.6810713400	-0.0009999500	-0.0501976870	0.0002937362	0.3698841600
0.6825793400	-0.0009999500	-0.0505350570	0.0002863431	0.3713541900
0.6840502000	-0.0009999500	-0.0508644950	0.0002785150	0.3727789500
0.6854866100	-0.0009999500	-0.0511865840	0.0002709305	0.3741951900
0.6868915000	-0.0009999500	-0.0515019600	0.0002643585	0.3755895200
0.6882677100	-0.0009999500	-0.0518112220	0.0002578294	0.3769669200
0.6896178700	-0.0009999500	-0.0521149670	0.0002507962	0.3783255500
0.6909447900	-0.0009999500	-0.0524137800	0.0002430754	0.3796603700
0.6922507300	-0.0009999500	-0.0527081820	0.0002350754	0.3809882100
0.6935380700	-0.0009999500	-0.0529986840	0.0002276003	0.3822980500
0.6948090200	-0.0009999500	-0.0532857850	0.0002207685	0.3835981200
0.6960653700	-0.0009999500	-0.0535698640	0.0002142639	0.3848841500
0.6973090200	-0.0009999500	-0.0538513470	0.0002080679	0.3861571800
0.6985415200	-0.0009999500	-0.0541305800	0.0002022041	0.3874335600
0.6997639500	-0.0009999500	-0.0544078090	0.0001961565	0.3887151200
0.7009772700	-0.0009999500	-0.0546832310	0.0001890226	0.3899836200
0.7021821100	-0.0009999500	-0.0549569880	0.0001811015	0.3912436100
0.7033786800	-0.0009999500	-0.0552291350	0.0001739921	0.3925158700
0.7045671900	-0.0009999500	-0.0554996990	0.0001683125	0.3937872600
0.7057476000	-0.0009999500	-0.0557686650	0.0001630223	0.3950510000
0.7069196700	-0.0009999500	-0.0560359990	0.0001570700	0.3963041600
0.7080834500	-0.0009999500	-0.0563016790	0.0001503554	0.3975485900
0.7092387700	-0.0009999500	-0.0565656760	0.0001434490	0.3987889300
0.7103856800	-0.0009999500	-0.0568279920	0.0001371266	0.4000268600
0.7115242500	-0.0009999500	-0.0570886400	0.0001314321	0.4012738800
0.7126546500	-0.0009999500	-0.0573476520	0.0001256155	0.4025146700
0.7137771200	-0.0009999500	-0.0576050800	0.0001188474	0.4037295300
0.7148917300	-0.0009999500	-0.0578609410	0.0001116415	0.4049513300
0.7159985900	-0.0009999500	-0.0581152400	0.0001049734	0.4061681900
0.7170975800	-0.0009999500	-0.0583679600	0.0000986713	0.4073730700
0.7181884600	-0.0009999500	-0.0586190450	0.0000927017	0.4085800600
0.7192709400	-0.0009999500	-0.0588684160	0.0000868141	0.4097750500
0.7203443600	-0.0009999500	-0.0591159090	0.0000808377	0.4109720300
0.7214078300	-0.0009999500	-0.0593613240	0.0000746719	0.4121523200
0.7224604500	-0.0009999500	-0.0596044400	0.0000680222	0.4133272800
0.7235010300	-0.0009999500	-0.0598449820	0.0000612832	0.4144941600
0.7245283100	-0.0009999500	-0.0600826520	0.0000546173	0.4156446500
0.7255412900	-0.0009999500	-0.0603172110	0.0000483995	0.4167808000
0.7265393100	-0.0009999500	-0.0605484990	0.0000425984	0.4178925200
0.7275214800	-0.0009999500	-0.0607762970	0.0000368487	0.4189940700
0.7284859400	-0.0009999500	-0.0610001610	0.0000311343	0.4200805400
0.7294301400	-0.0009999500	-0.0612194870	0.0000251198	0.4211461500
0.7303513300	-0.0009999500	-0.0614336360	0.0000186877	0.4221876600
0.7312468900	-0.0009999500	-0.0616419950	0.0000123521	0.4232057600
0.7321145500	-0.0009999500	-0.0618440020	0.0000062100	0.4241831900
0.7329520600	-0.0009999500	-0.0620391220	0.0000004840	0.4251378200
0.7337573200	-0.0009999500	-0.0622268650	-0.0000044795	0.4260472700
0.7345288400	-0.0009999500	-0.0624068530	-0.0000093752	0.4269110900
0.7352655500	-0.0009999500	-0.0625788420	-0.0000142323	0.4277449000
0.7359671600	-0.0009999500	-0.0627427100	-0.0000187951	0.4285337000
0.7366327600	-0.0009999500	-0.0628982710	-0.0000224044	0.4292831400
0.7372621900	-0.0009999500	-0.0630454570	-0.0000264969	0.4299676700
0.7378327800	-0.0009999500	-0.0631789640	-0.0000360678	0.4306332800
0.7379599200	-0.0009999500	-0.0632087140	-0.0000349751	0.4307946600
0.7387298900	-0.0009999500	-0.0633889660	-0.0000331858	0.4316740000
0.7388817700	-0.0009999500	-0.0634245350	-0.0000333894	0.4318314500
0.7394486700	-0.0009999500	-0.0635573420	-0.0000344632	0.4325051600
0.7399358700	-0.0009999500	-0.0636715290	-0.0000397350	0.4330162100
0.7401503900	-0.0009999500	-0.0637218210	-0.0000417011	0.4332419900
0.7403773100	-0.0009999500	-0.0637750180	-0.0000430457	0.4334857800
0.7407875700	-0.0009999500	-0.0638712270	-0.0000442140	0.4339641000
0.7411823900	-0.0009999500	-0.0639638750	-0.0000441052	0.4343779400
0.7415319700	-0.0009999500	-0.0640459210	-0.0000456990	0.4347590200
0.7418557400	-0.0009999500	-0.0641219090	-0.0000503060	0.4351308000
0.7421875000	-0.0009999500	-0.0641998130	-0.0000503608	0.4354779700
0.7425101400	-0.0009999500	-0.0642755930	-0.0000500974	0.4358029700
0.7427197700	-0.0009999500	-0.0643248480	-0.0000464736	0.4360514000
0.7427669200	-0.0009999500	-0.0643359270	-0.0000457513	0.4361082300
0.7430557600	-0.0009999500	-0.0644038020	-0.0000487325	0.4364177300
0.7432940000	-0.0009999500	-0.0644598080	-0.0000492174	0.4366840700
0.7435972700	-0.0009999500	-0.0645311030	-0.0000487933	0.4370186600
0.7439212200	-0.0009999500	-0.0646072780	-0.0000503059	0.4373779300
0.7440662400	-0.0009999500	-0.0646413940	-0.0000519053	0.4375158000
0.7443794000	-0.0009999500	-0.0647150730	-0.0000498414	0.4378225800
0.7444574800	-0.0009999500	-0.0647334460	-0.0000492415	0.4378989900
0.7447432900	-0.0009999500	-0.0648007090	-0.0000498182	0.4382467000
0.7450521000	-0.0009999500	-0.0648734050	-0.0000492690	0.4385298500
0.7451337000	-0.0009999500	-0.0648926200	-0.0000486177	0.4386140100
0.7454946000	-0.0009999500	-0.0649776160	-0.0000430290	0.4390189900
0.7456244800	-0.0009999500	-0.0650082160	-0.0000416548	0.4391566800
0.7458922300	-0.0009999500	-0.0650712920	-0.0000397267	0.4394134300
0.7459684600	-0.0009999500	-0.0650892410	-0.0000386556	0.4394853100
0.7460763500	-0.0009999500	-0.0651146770	-0.0000352232	0.4395924200
0.7463152400	-0.0009999500	-0.0651709590	-0.0000273077	0.4398458000
0.7464655000	-0.0009999500	-0.0652063790	-0.0000210714	0.4399791700
0.7466095100	-0.0009999500	-0.0652403160	-0.0000141662	0.4401086900
0.7467917200	-0.0009999500	-0.0652832840	0.0000119328	0.4402800500
0.7469319100	-0.0009999500	-0.0653163190	0.0000860581	0.4403617100
0.7470486800	-0.0009999500	-0.0653438570	0.0003281201	0.4395396400
0.7471460100	-0.0009999500	-0.0653668050	0.0005606986	0.4384049800
0.7470461700	-0.0009999500	-0.0653725040	0.0004393553	0.4386870600
0.7469263700	-0.0009999500	-0.0653793440	0.0002243334	0.4393055400
0.7467826000	-0.0009999500	-0.0653875470	0.0001674377	0.4392351800
0.7465884700	-0.0009999500	-0.0653986190	0.0001603659	0.4389449100
0.7464085800	-0.0009999500	-0.0654088780	0.0001649246	0.4387028500
0.7462931900	-0.0009999500	-0.0654154490	0.0001643827	0.4385216500
0.7459397900	-0.0009999500	-0.0654355810	0.0001672540	0.4379407800
0.7459324000	-0.0009999500	-0.0654360060	0.0001673029	0.4379280500
0.7455928900	-0.0009999500	-0.0654553170	0.0001667670	0.4373705700
0.7451805500	-0.0009999500	-0.0654787640	0.0001735214	0.4366849700
0.7448834800	-0.0009999500	-0.0654956180	0.0001793204	0.4361881300
0.7446790900	-0.0009999500	-0.0655072110	0.0001813081	0.4358485600
0.7444368600	-0.0009999500	-0.0655209420	0.0001803317	0.4354194400
0.7442656200	-0.0009999500	-0.0655306350	0.0001828455	0.4351224900
0.7440317900	-0.0009999500	-0.0655438680	0.0001926315	0.4347235900
0.7439643100	-0.0009999500	-0.0655476820	0.0001945073	0.4346257200
0.7435964300	-0.0009999500	-0.0655684770	0.0001973709	0.4339761700
0.7434880100	-0.0009999500	-0.0655745940	0.0001959782	0.4337659800
0.7431832600	-0.0009999500	-0.0655917900	0.0002114410	0.4332945600
0.7431505900	-0.0009999500	-0.0655936380	0.0002119905	0.4332396100
0.7427961800	-0.0009999500	-0.0656136130	0.0002221147	0.4326516700
0.7427260900	-0.0009999500	-0.0656175540	0.0002238763	0.4325299600
0.7425140100	-0.0009999500	-0.0656294900	0.0002243734	0.4321509900
0.7421881600	-0.0009999500	-0.0656478180	0.0002257663	0.4316473900
0.7418808900	-0.0009999500	-0.0656650890	0.0002286820	0.4310842200
0.7415295200	-0.0009999500	-0.0656848100	0.0002287419	0.4304802700
0.7411789900	-0.0009999500	-0.0657044650	0.0002334783	0.4298574900
0.7407884600	-0.0009999500	-0.0657263250	0.0002369837	0.4292134600
0.7403758800	-0.0009999500	-0.0657494070	0.0002457564	0.4284664700
0.7403755800	-0.0009999500	-0.0657494220	0.0002457654	0.4284659300
0.7399248500	-0.0009999500	-0.0657746050	0.0002512993	0.4277453700
0.7394133200	-0.0009999500	-0.0658031260	0.0002617285	0.4270251700
0.7388270500	-0.0009999500	-0.0658357660	0.0002583321	0.4259793800
0.7386763100	-0.0009999500	-0.0658441480	0.0002626150	0.4257460500
0.7379070500	-0.0009999500	-0.0658868630	0.0002688699	0.4245537200
0.7377833100	-0.0009999500	-0.0658937250	0.0002671618	0.4243855800
0.7372162900	-0.0009999500	-0.0659251290	0.0002933690	0.4234790800
0.7365855000	-0.0009999500	-0.0659599970	0.0003007113	0.4225259700
0.7359205500	-0.0009999500	-0.0659966770	0.0003085741	0.4215215700
0.7352223400	-0.0009999500	-0.0660350990	0.0003167384	0.4204705700
0.7344917700	-0.0009999500	-0.0660752130	0.0003251366	0.4193482400
0.7337296000	-0.0009999500	-0.0661169510	0.0003344123	0.4182297300
0.7329374600	-0.0009999500	-0.0661602320	0.0003431820	0.4171086000
0.7321173000	-0.0009999500	-0.0662049130	0.0003534790	0.4159174600
0.7312711500	-0.0009999500	-0.0662508900	0.0003639109	0.4147800800
0.7304006200	-0.0009999500	-0.0662980530	0.0003715395	0.4135744000
0.7295074500	-0.0009999500	-0.0663463100	0.0003790103	0.4123094400
0.7285933500	-0.0009999500	-0.0663955510	0.0003880694	0.4110709700
0.7276598200	-0.0009999500	-0.0664456780	0.0003987903	0.4098575100
0.7267082900	-0.0009999500	-0.0664966180	0.0004092518	0.4086589800
0.7257396600	-0.0009999500	-0.0665483100	0.0004181241	0.4074027200
0.7247544500	-0.0009999500	-0.0666007180	0.0004267077	0.4061263200
0.7237531500	-0.0009999500	-0.0666538030	0.0004362856	0.4048569200
0.7227363000	-0.0009999500	-0.0667075370	0.0004461729	0.4036256700
0.7217045400	-0.0009999500	-0.0667618740	0.0004546240	0.4023714100
0.7206586600	-0.0009999500	-0.0668167620	0.0004626732	0.4010826300
0.7195992500	-0.0009999500	-0.0668721720	0.0004705593	0.3998480700
0.7185270800	-0.0009999500	-0.0669280440	0.0004772788	0.3986038900
0.7174426900	-0.0009999500	-0.0669843480	0.0004840943	0.3973277800
0.7163466200	-0.0009999500	-0.0670410540	0.0004928460	0.3960540000
0.7152392300	-0.0009999500	-0.0670981410	0.0005028691	0.3948325500
0.7141207500	-0.0009999500	-0.0671555770	0.0005121051	0.3936079700
0.7129912400	-0.0009999500	-0.0672133640	0.0005206049	0.3923513900
0.7118508800	-0.0009999500	-0.0672714780	0.0005284541	0.3911100000
0.7106998600	-0.0009999500	-0.0673299130	0.0005350036	0.3898755300
0.7095383400	-0.0009999500	-0.0673886540	0.0005415838	0.3886214500
0.7083665100	-0.0009999500	-0.0674476770	0.0005501006	0.3873928500
0.7071846700	-0.0009999500	-0.0675069760	0.0005597738	0.3862026000
0.7059932400	-0.0009999500	-0.0675665070	0.0005682078	0.3849958200
0.7047926800	-0.0009999500	-0.0676262530	0.0005748611	0.3837547300
0.7035833000	-0.0009999500	-0.0676861930	0.0005811052	0.3825325700
0.7023653400	-0.0009999500	-0.0677463040	0.0005883359	0.3813327800
0.7011389700	-0.0009999500	-0.0678065790	0.0005961890	0.3801542800
0.6999043200	-0.0009999500	-0.0678670110	0.0006031252	0.3789705300
0.6986612100	-0.0009999500	-0.0679275920	0.0006110847	0.3777547800
0.6974095700	-0.0009999500	-0.0679883290	0.0006202236	0.3766059000
0.6961492300	-0.0009999500	-0.0680492220	0.0006265572	0.3754509700
0.6948800700	-0.0009999500	-0.0681102800	0.0006313887	0.3742345300
0.6936016700	-0.0009999500	-0.0681715090	0.0006384138	0.3730649900
0.6923135500	-0.0009999500	-0.0682329310	0.0006459346	0.3719542600
0.6910148900	-0.0009999500	-0.0682945700	0.0006526537	0.3707702800
0.6897043600	-0.0009999500	-0.0683564920	0.0006603453	0.3695942200
0.6883800600	-0.0009999500	-0.0684187860	0.0006673077	0.3684789800
0.6870399100	-0.0009999500	-0.0684815270	0.0006731947	0.3672806600
0.6856805100	-0.0009999500	-0.0685448650	0.0006802994	0.3661108600
0.6842983400	-0.0009999500	-0.0686089620	0.0006878952	0.3649792100
0.6828889800	-0.0009999500	-0.0686739910	0.0006956831	0.3637899200
0.6814478600	-0.0009999500	-0.0687401520	0.0007034797	0.3626034000
0.6799702000	-0.0009999500	-0.0688076390	0.0007107834	0.3613916900
0.6784513000	-0.0009999500	-0.0688766460	0.0007185647	0.3601490300
0.6768865600	-0.0009999500	-0.0689473450	0.0007266564	0.3589087700
0.6752710900	-0.0009999500	-0.0690199210	0.0007339526	0.3576378500
0.6736003200	-0.0009999500	-0.0690945390	0.0007404587	0.3563265800
0.6718692800	-0.0009999500	-0.0691713770	0.0007470923	0.3549903300
0.6700719600	-0.0009999500	-0.0692506510	0.0007544889	0.3536261600
0.6682016300	-0.0009999500	-0.0693325920	0.0007625674	0.3522182700
0.6662502900	-0.0009999500	-0.0694174990	0.0007709878	0.3507644800
0.6642074600	-0.0009999500	-0.0695057360	0.0007794579	0.3492575300
0.6620593100	-0.0009999500	-0.0695978110	0.0007876849	0.3476873900
0.6597890300	-0.0009999500	-0.0696943330	0.0007949865	0.3460418000
0.6573766500	-0.0009999500	-0.0697960180	0.0008001091	0.3443089400
0.6547966000	-0.0009999500	-0.0699037540	0.0008016592	0.3424789000
0.6520150900	-0.0009999500	-0.0700187460	0.0007993824	0.3405430300
0.6489948600	-0.0009999500	-0.0701422470	0.0007951355	0.3385004400
0.6457350300	-0.0009999500	-0.0702739730	0.0007919789	0.3363581000
0.6422627600	-0.0009999500	-0.0704124790	0.0007922287	0.3341528200
0.6387624700	-0.0009999500	-0.0705502410	0.0007966289	0.3319547500
0.6368072600	-0.0009999500	-0.0706261550	0.0008007654	0.3307412600
0.6353025400	-0.0009999500	-0.0706845820	0.0008076565	0.3298138700
0.6318917900	-0.0009999500	-0.0708152430	0.0008231036	0.3277381100
0.6285322300	-0.0009999500	-0.0709422310	0.0008377950	0.3257202800
0.6252171400	-0.0009999500	-0.0710658730	0.0008512932	0.3237584500
0.6219384700	-0.0009999500	-0.0711865430	0.0008634531	0.3218563200
0.6186884000	-0.0009999500	-0.0713045750	0.0008736693	0.3199398500
0.6154585500	-0.0009999500	-0.0714203270	0.0008833634	0.3181295700
0.6122414500	-0.0009999500	-0.0715340900	0.0008935657	0.3163940900
0.6090304300	-0.0009999500	-0.0716461170	0.0008970268	0.3144844500
0.6058198200	-0.0009999500	-0.0717566160	0.0009013660	0.3127820800
0.6026049900	-0.0009999500	-0.0718657520	0.0009122127	0.3111679300
0.5993821600	-0.0009999500	-0.0719736520	0.0009221451	0.3094179300
0.5961487300	-0.0009999500	-0.0720803890	0.0009371935	0.3077410200
0.5929026600	-0.0009999500	-0.0721860160	0.0009419955	0.3059828600
0.5896424700	-0.0009999500	-0.0722905700	0.0009414279	0.3043252500
0.5863667700	-0.0009999500	-0.0723940800	0.0009557913	0.3027341100
0.5830744500	-0.0009999500	-0.0724965710	0.0009691162	0.3010848800
0.5797642500	-0.0009999500	-0.0725980480	0.0009766768	0.2994796600
0.5764346100	-0.0009999500	-0.0726985480	0.0009774200	0.2977694900
0.5730838200	-0.0009999500	-0.0727980880	0.0009795585	0.2962044200
0.5697099000	-0.0009999500	-0.0728966970	0.0009884164	0.2946427800
0.5663104100	-0.0009999500	-0.0729944260	0.0009954346	0.2930119300
0.5628830800	-0.0009999500	-0.0730912980	0.0010093046	0.2914684700
0.5594255900	-0.0009999500	-0.0731873440	0.0010229983	0.2898472800
0.5559356800	-0.0009999500	-0.0732825770	0.0010312370	0.2882816500
0.5524113800	-0.0009999500	-0.0733770130	0.0010341105	0.2866467800
0.5488516700	-0.0009999500	-0.0734706220	0.0010353767	0.2850449700
0.5452564400	-0.0009999500	-0.0735633600	0.0010503195	0.2835350600
0.5416267500	-0.0009999500	-0.0736551510	0.0010648555	0.2819548500
0.5379650000	-0.0009999500	-0.0737458770	0.0010629438	0.2802956100
0.5342748200	-0.0009999500	-0.0738354180	0.0010664678	0.2787839200
0.5305606100	-0.0009999500	-0.0739236180	0.0010766449	0.2772336300
0.5268271600	-0.0009999500	-0.0740103350	0.0010829673	0.2756208200
0.5230786800	-0.0009999500	-0.0740954350	0.0010988039	0.2741460200
0.5193187000	-0.0009999500	-0.0741788300	0.0011132524	0.2726100400
0.5155493600	-0.0009999500	-0.0742604510	0.0011109929	0.2710049200
0.5117711400	-0.0009999500	-0.0743402760	0.0011067031	0.2694695900
0.5079833900	-0.0009999500	-0.0744182990	0.0011199950	0.2680963900
0.5041838900	-0.0009999500	-0.0744945560	0.0011321512	0.2665444000
0.5003697900	-0.0009999500	-0.0745690690	0.0011391328	0.2650621200
0.4965376600	-0.0009999500	-0.0746418910	0.0011470206	0.2635989500
0.4926838600	-0.0009999500	-0.0747130440	0.0011520077	0.2620936300
0.4888050000	-0.0009999500	-0.0747825500	0.0011657076	0.2606985900
0.4848982400	-0.0009999500	-0.0748504250	0.0011772484	0.2592094200
0.4809618000	-0.0009999500	-0.0749166460	0.0011827923	0.2577433000
0.4769949600	-0.0009999500	-0.0749811680	0.0011916140	0.2563038800
0.4729985600	-0.0009999500	-0.0750439240	0.0012020006	0.2549105900
0.4689751900	-0.0009999500	-0.0751048100	0.0012101302	0.2534755500
0.4649294000	-0.0009999500	-0.0751637220	0.0012100601	0.2519803300
0.4608667800	-0.0009999500	-0.0752205250	0.0012137576	0.2505792700
0.4567936100	-0.0009999500	-0.0752751160	0.0012321703	0.2492177200
0.4527168900	-0.0009999500	-0.0753273740	0.0012453529	0.2477734500
0.4486441300	-0.0009999500	-0.0753771890	0.0012505189	0.2464008300
0.4445819600	-0.0009999500	-0.0754244920	0.0012563625	0.2449932100
0.4405350100	-0.0009999500	-0.0754692410	0.0012625555	0.2436333700
0.4365063300	-0.0009999500	-0.0755114110	0.0012640648	0.2423579100
0.4324971100	-0.0009999500	-0.0755510260	0.0012681483	0.2410247900
0.4285067000	-0.0009999500	-0.0755881070	0.0012861461	0.2397645700
0.4245331000	-0.0009999500	-0.0756226930	0.0013002457	0.2384733000
0.4205735300	-0.0009999500	-0.0756548350	0.0013002766	0.2371395100
0.4166247500	-0.0009999500	-0.0756845620	0.0013031526	0.2360087200
0.4126833100	-0.0009999500	-0.0757118990	0.0013106075	0.2347499900
0.4087458000	-0.0009999500	-0.0757368730	0.0013111431	0.2334405900
0.4048094500	-0.0009999500	-0.0757594850	0.0013211482	0.2323486700
0.4008724700	-0.0009999500	-0.0757797430	0.0013435711	0.2312142700
0.3969341200	-0.0009999500	-0.0757976250	0.0013464085	0.2299200900
0.3929943700	-0.0009999500	-0.0758131220	0.0013447189	0.2287503300
0.3890538800	-0.0009999500	-0.0758262130	0.0013636054	0.2277071500
0.3851136300	-0.0009999500	-0.0758368750	0.0013804491	0.2265695800
0.3811744700	-0.0009999500	-0.0758450850	0.0013901195	0.2254842800
0.3772365700	-0.0009999500	-0.0758508370	0.0013899901	0.2242870800
0.3732991500	-0.0009999500	-0.0758541080	0.0013841069	0.2231722500
0.3693604500	-0.0009999500	-0.0758548900	0.0013963366	0.2222234000
0.3654176300	-0.0009999500	-0.0758531540	0.0014189505	0.2211759100
0.3614671200	-0.0009999500	-0.0758488700	0.0014310283	0.2200721700
0.3575047000	-0.0009999500	-0.0758420010	0.0014379048	0.2190219200
0.3535254000	-0.0009999500	-0.0758324710	0.0014472377	0.2180331100
0.3495244400	-0.0009999500	-0.0758202220	0.0014549824	0.2169977300
0.3454980900	-0.0009999500	-0.0758051720	0.0014643504	0.2159629300
0.3414437500	-0.0009999500	-0.0757872240	0.0014786591	0.2150524400
0.3373599900	-0.0009999500	-0.0757662950	0.0014808494	0.2139925200
0.3332473000	-0.0009999500	-0.0757423040	0.0014752919	0.2129319500
0.3291077300	-0.0009999500	-0.0757151690	0.0014901238	0.2120877200
0.3249447900	-0.0009999500	-0.0756848310	0.0015146954	0.2111435200
0.3207638300	-0.0009999500	-0.0756512510	0.0015256355	0.2100822800
0.3165715600	-0.0009999500	-0.0756144150	0.0015304320	0.2091291500
0.3123748000	-0.0009999500	-0.0755743380	0.0015399359	0.2082459800
0.3081809600	-0.0009999500	-0.0755310580	0.0015524133	0.2073687200
0.3039967400	-0.0009999500	-0.0754846260	0.0015545965	0.2064494200
0.2998270100	-0.0009999500	-0.0754350870	0.0015504615	0.2055509700
0.2956748300	-0.0009999500	-0.0753824790	0.0015662539	0.2047797600
0.2915410400	-0.0009999500	-0.0753268230	0.0015927129	0.2040045100
0.2874242400	-0.0009999500	-0.0752681050	0.0016048523	0.2031375300
0.2833213200	-0.0009999500	-0.0752062720	0.0016003102	0.2022362900
0.2792276100	-0.0009999500	-0.0751412510	0.0016038752	0.2015697200
0.2751381400	-0.0009999500	-0.0750729520	0.0016248710	0.2008692200
0.2710487800	-0.0009999500	-0.0750012620	0.0016422067	0.2000880700
0.2669563000	-0.0009999500	-0.0749260930	0.0016515003	0.1993890900
0.2628587800	-0.0009999500	-0.0748473480	0.0016483215	0.1986097800
0.2587565200	-0.0009999500	-0.0747649820	0.0016520465	0.1979955600
0.2546520800	-0.0009999500	-0.0746789950	0.0016765412	0.1974325600
0.2505503900	-0.0009999500	-0.0745894540	0.0016913446	0.1967096300
0.2464581700	-0.0009999500	-0.0744964630	0.0016970331	0.1960562200
0.2423823800	-0.0009999500	-0.0744001870	0.0017078993	0.1955210600
0.2383295600	-0.0009999500	-0.0743007880	0.0017082010	0.1948808400
0.2343055300	-0.0009999500	-0.0741984250	0.0017113980	0.1943661100
0.2303142400	-0.0009999500	-0.0740932450	0.0017331114	0.1939087700
0.2263569700	-0.0009999500	-0.0739853230	0.0017482160	0.1933402600
0.2224325200	-0.0009999500	-0.0738746820	0.0017552913	0.1928491700
0.2185392200	-0.0009999500	-0.0737612990	0.0017660804	0.1923929600
0.2146772700	-0.0009999500	-0.0736452490	0.0017786180	0.1920299500
0.2108414900	-0.0009999500	-0.0735263900	0.0017752163	0.1915036300
0.2070213700	-0.0009999500	-0.0734044310	0.0017766467	0.1911054100
0.2032035700	-0.0009999500	-0.0732789190	0.0018025393	0.1908891100
0.1993747700	-0.0009999500	-0.0731493610	0.0018187177	0.1904338400
0.1955229500	-0.0009999500	-0.0730152430	0.0018284812	0.1901245900
0.1916386900	-0.0009999500	-0.0728761110	0.0018275183	0.1897313300
0.1877152800	-0.0009999500	-0.0727315620	0.0018290753	0.1894828800
0.1837489800	-0.0009999500	-0.0725812840	0.0018523799	0.1892930100
0.1797387700	-0.0009999500	-0.0724250450	0.0018559747	0.1888563600
0.1756858400	-0.0009999500	-0.0722626970	0.0018586387	0.1887179000
0.1715932600	-0.0009999500	-0.0720941570	0.0018697529	0.1884785000
0.1674651700	-0.0009999500	-0.0719193970	0.0018781761	0.1882868100
0.1633058500	-0.0009999500	-0.0717384220	0.0018999844	0.1881402100
0.1591197700	-0.0009999500	-0.0715512340	0.0019146965	0.1878949400
0.1549111900	-0.0009999500	-0.0713578690	0.0019196449	0.1878155000
0.1506834600	-0.0009999500	-0.0711583350	0.0019293383	0.1877198200
0.1464394300	-0.0009999500	-0.0709526090	0.0019415827	0.1876493700
0.1421816100	-0.0009999500	-0.0707406770	0.0019498560	0.1876066200
0.1379123500	-0.0009999500	-0.0705225240	0.0019570839	0.1875792400
0.1336347600	-0.0009999500	-0.0702981650	0.0019700158	0.1876240700
0.1293523900	-0.0009999500	-0.0700676810	0.0019817256	0.1876489100
0.1250697700	-0.0009999500	-0.0698311920	0.0019915206	0.1877202100
0.1207921900	-0.0009999500	-0.0695889290	0.0019894524	0.1878128900
0.1165254500	-0.0009999500	-0.0693411450	0.0019800733	0.1879089600
0.1122761400	-0.0009999500	-0.0690881980	0.0019979664	0.1882032500
0.1080505800	-0.0009999500	-0.0688304450	0.0020283958	0.1883920400
0.1038548900	-0.0009999500	-0.0685682740	0.0020427557	0.1886004200
0.0996945350	-0.0009999500	-0.0683020650	0.0020348474	0.1887846300
0.0955735820	-0.0009999500	-0.0680321460	0.0020352601	0.1891080600
0.0914955810	-0.0009999500	-0.0677588430	0.0020631302	0.1896479000
0.0874631850	-0.0009999500	-0.0674824420	0.0020657103	0.1898280100
0.0834776760	-0.0009999500	-0.0672031420	0.0020517542	0.1901277500
0.0795392990	-0.0009999500	-0.0669210780	0.0020679054	0.1907690600
0.0756472950	-0.0009999500	-0.0666363160	0.0020948429	0.1911782800
0.0717999790	-0.0009999500	-0.0663488360	0.0021099989	0.1915801500
0.0679948930	-0.0009999500	-0.0660585690	0.0021168458	0.1920944500
0.0642290710	-0.0009999500	-0.0657653810	0.0021074143	0.1925130300
0.0604993100	-0.0009999500	-0.0654691090	0.0021066354	0.1931942700
0.0568024960	-0.0009999500	-0.0651695950	0.0021307035	0.1938671500
0.0531359580	-0.0009999500	-0.0648666690	0.0021443489	0.1943848900
0.0494978240	-0.0009999500	-0.0645602350	0.0021488166	0.1950259400
0.0458872430	-0.0009999500	-0.0642502460	0.0021420134	0.1955756100
0.0423044820	-0.0009999500	-0.0639367700	0.0021400171	0.1963857300
0.0387508980	-0.0009999500	-0.0636199710	0.0021593569	0.1971693300
0.0352286850	-0.0009999500	-0.0633001030	0.0021720674	0.1977527300
0.0317407590	-0.0009999500	-0.0629775150	0.0021764609	0.1985658700
0.0282904130	-0.0009999500	-0.0626525950	0.0021822553	0.1993778200
0.0248806530	-0.0009999500	-0.0623257420	0.0021893330	0.2002045400
0.0215139870	-0.0009999500	-0.0619973130	0.0021978272	0.2010697300
0.0181927980	-0.0009999500	-0.0616676660	0.0022021311	0.2018999200
0.0149190520	-0.0009999500	-0.0613371470	0.0022038895	0.2028014200
0.0116939510	-0.0009999500	-0.0610060320	0.0022102714	0.2037407900
0.0085180495	-0.0009999500	-0.0606745480	0.0022159740	0.2046281400
0.0053911731	-0.0009999500	-0.0603428450	0.0022230979	0.2055968800
0.0023121473	-0.0009999500	-0.0600109700	0.0022327793	0.2065698200
-0.0007209239	-0.0009999500	-0.0596788860	0.0022371380	0.2075658700
-0.0037111125	-0.0009999500	-0.0593464040	0.0022425199	0.2085803900
-0.0066625192	-0.0009999500	-0.0590131950	0.0022515575	0.2095970500
-0.0095795142	-0.0009999500	-0.0586788730	0.0022559524	0.2106602000
-0.0124675530	-0.0009999500	-0.0583428960	0.0022593464	0.2117361300
-0.0153318530	-0.0009999500	-0.0580047220	0.0022657083	0.2128448000
-0.0181764160	-0.0009999500	-0.0576639140	0.0022721540	0.2139821200
-0.0210051070	-0.0009999500	-0.0573200320	0.0022784146	0.2151465600
-0.0238211920	-0.0009999500	-0.0569726820	0.0022844344	0.2163437800
-0.0266266990	-0.0009999500	-0.0566216070	0.0022902414	0.2175574200
-0.0294227190	-0.0009999500	-0.0562666510	0.0022966064	0.2187920400
-0.0322092960	-0.0009999500	-0.0559077670	0.0023043003	0.2200981800
-0.0349854310	-0.0009999500	-0.0555450620	0.0022951666	0.2212914400
-0.0377495030	-0.0009999500	-0.0551787240	0.0022869925	0.2226829200
-0.0404995160	-0.0009999500	-0.0548090000	0.0023098457	0.2241352500
-0.0432331260	-0.0009999500	-0.0544362180	0.0023276027	0.2254698000
-0.0459476670	-0.0009999500	-0.0540607570	0.0023280916	0.2268124100
-0.0486408810	-0.0009999500	-0.0536829680	0.0023323021	0.2282163900
-0.0513112400	-0.0009999500	-0.0533031150	0.0023217228	0.2296535800
-0.0539579580	-0.0009999500	-0.0529213700	0.0023124380	0.2312281400
-0.0565811320	-0.0009999500	-0.0525377690	0.0023360857	0.2328495100
-0.0591818650	-0.0009999500	-0.0521521980	0.0023552378	0.2343599200