TITLE     = "Surface mesh and solution"
VARIABLES = "x"
"y"
"z"
"cfx"
"Cp"
DATASETAUXDATA alpha_deg="  0.0000000E+00"
DATASETAUXDATA beta_deg="  0.0000000E+00"
DATASETAUXDATA bref="  0.7500000"
DATASETAUXDATA cref="   1.000000"
DATASETAUXDATA itranflg="           0"
DATASETAUXDATA ivisc="           2"
DATASETAUXDATA mach="  0.2000000"
DATASETAUXDATA reue_mil="   4.600000"
DATASETAUXDATA sref="  0.7500000"
DATASETAUXDATA tinf_r="   521.0000"
DATASETAUXDATA xmc="  0.0000000E+00"
DATASETAUXDATA ymc="  0.0000000E+00"
DATASETAUXDATA zmc="  0.0000000E+00"
ZONE T="USM3D-ME, MITAdapted_X0040k, Slice: Y=-0.001"
 STRANDID=0, SOLUTIONTIME=0
 Nodes=259, Elements=238, ZONETYPE=FELineSeg
 DATAPACKING=POINT
 DT=(DOUBLE DOUBLE DOUBLE DOUBLE DOUBLE )
 -2.490486745E-01 -1.000000000E-03 2.178893569E-02 5.330770233E-05 5.876899788E-01
 -2.471914573E-01 -1.000000000E-03 2.761339898E-02 3.765535529E-04 1.492795987E-01
 -2.482663643E-01 -1.000000000E-03 2.549415178E-02 2.335962909E-04 2.992975046E-01
 -2.486303711E-01 -1.000000000E-03 2.376404297E-02 1.578407100E-04 4.321667445E-01
 -2.457364587E-01 -1.000000000E-03 3.032627960E-02 6.914648076E-04 -4.622456915E-02
 -2.306821644E-01 -1.000000000E-03 4.175032308E-02 2.554044303E-03 -4.189786195E-01
 -2.251365077E-01 -1.000000000E-03 4.435467111E-02 1.945915564E-03 -4.269150594E-01
 -2.274389961E-01 -1.000000000E-03 4.337809035E-02 2.495817490E-03 -4.328090367E-01
 -2.209971581E-01 -1.000000000E-03 4.594027366E-02 2.504591998E-03 -4.276605460E-01
 -2.169155454E-01 -1.000000000E-03 4.739329871E-02 2.891710655E-03 -4.360013721E-01
 -2.345326174E-01 -1.000000000E-03 3.980479772E-02 2.340672100E-03 -3.934491438E-01
 -2.372242435E-01 -1.000000000E-03 3.809775691E-02 1.862043604E-03 -3.941733877E-01
 -2.097710012E-01 -1.000000000E-03 4.955131303E-02 2.013688547E-03 -4.513512680E-01
 -2.114691770E-01 -1.000000000E-03 4.904308635E-02 1.801879678E-03 -4.492616664E-01
 -2.046891374E-01 -1.000000000E-03 5.086647826E-02 3.347231252E-03 -4.166403152E-01
 -2.025187789E-01 -1.000000000E-03 5.141739081E-02 3.473962425E-03 -4.106681800E-01
 -1.981169534E-01 -1.000000000E-03 5.238626894E-02 2.962698028E-03 -4.030092929E-01
 -1.801936646E-01 -1.000000000E-03 5.573082112E-02 2.229117505E-03 -4.020543979E-01
 -1.842207452E-01 -1.000000000E-03 5.502558178E-02 2.295787763E-03 -3.975035978E-01
 -1.704299413E-01 -1.000000000E-03 5.703130416E-02 3.096466340E-03 -3.869897772E-01
 -1.588407430E-01 -1.000000000E-03 5.845844576E-02 3.267036986E-03 -3.696989917E-01
 -1.645081538E-01 -1.000000000E-03 5.785199951E-02 3.076353223E-03 -3.745437956E-01
 -1.519821307E-01 -1.000000000E-03 5.915546084E-02 2.935663231E-03 -3.589796031E-01
 -1.462522849E-01 -1.000000000E-03 5.961262180E-02 2.372932603E-03 -3.509583426E-01
 -1.386216084E-01 -1.000000000E-03 6.022431023E-02 2.070797313E-03 -3.429792536E-01
 -1.935317182E-01 -1.000000000E-03 5.337487666E-02 2.700666106E-03 -3.986156147E-01
 -1.209329709E-01 -1.000000000E-03 6.121761377E-02 1.602173631E-03 -3.301647015E-01
 -1.249549595E-01 -1.000000000E-03 6.100409058E-02 1.604350044E-03 -3.335231791E-01
 -1.163920138E-01 -1.000000000E-03 6.133506932E-02 1.726914342E-03 -3.248123178E-01
 -2.400484324E-01 -1.000000000E-03 3.469335635E-03 2.034850552E-04 8.889186881E-01
 -2.340253490E-01 -1.000000000E-03 -1.485429099E-03 2.856171577E-04 7.945560459E-01
 -2.403380107E-01 -1.000000000E-03 3.717467675E-03 1.965535970E-04 8.939318849E-01
 -2.406685835E-01 -1.000000000E-03 4.073179979E-03 1.849073633E-04 8.988091062E-01
 -2.441182280E-01 -1.000000000E-03 7.863517537E-03 7.153324069E-05 9.457199586E-01
 -2.325455811E-01 -1.000000000E-03 -2.435606678E-03 3.765742662E-04 7.748581462E-01
 -2.452109586E-01 -1.000000000E-03 9.393359525E-03 4.272911807E-05 9.524226711E-01
 -2.459766606E-01 -1.000000000E-03 1.045025084E-02 1.114638057E-05 9.566061252E-01
 6.757056530E-01 -1.000000000E-03 -6.899104840E-02 1.079565921E-04 3.491922474E-01
 6.920138844E-01 -1.000000000E-03 -6.823676279E-02 1.323303940E-04 3.661062994E-01
 7.068392846E-01 -1.000000000E-03 -6.751382737E-02 1.255033279E-04 3.773599445E-01
 7.070172523E-01 -1.000000000E-03 -6.750500438E-02 1.197124607E-04 3.775376037E-01
 7.071646604E-01 -1.000000000E-03 -6.749748609E-02 1.240301673E-04 3.776907361E-01
 7.252432183E-01 -1.000000000E-03 -6.656703457E-02 3.572152619E-05 3.967091962E-01
 7.254770341E-01 -1.000000000E-03 -6.655440361E-02 3.312044645E-05 3.971102587E-01
 6.922318499E-02 -1.000000000E-03 5.412516067E-02 1.895053558E-03 -1.375629600E-01
 7.756937382E-02 -1.000000000E-03 5.330650091E-02 1.838957192E-03 -1.285472688E-01
 4.751283896E-02 -1.000000000E-03 5.604350007E-02 1.293119864E-03 -1.616306513E-01
 2.717488503E-02 -1.000000000E-03 5.766461151E-02 1.032602015E-03 -1.828355911E-01
 1.144817388E-01 -1.000000000E-03 4.944462779E-02 1.630440540E-03 -9.569181428E-02
 1.067957346E-01 -1.000000000E-03 5.030607444E-02 1.636466496E-03 -1.043704235E-01
 1.418801712E-01 -1.000000000E-03 4.625419806E-02 1.617845458E-03 -7.158280169E-02
 1.785970696E-01 -1.000000000E-03 4.157193659E-02 1.497345190E-03 -3.903404657E-02
 1.803419012E-01 -1.000000000E-03 4.135613343E-02 1.504303993E-03 -3.756343408E-02
 1.828128996E-01 -1.000000000E-03 4.101771721E-02 1.489952808E-03 -3.516400859E-02
 -2.147310481E-02 -1.000000000E-03 6.061692415E-02 8.385600672E-04 -2.240221373E-01
 1.542665333E-02 -1.000000000E-03 5.847766312E-02 9.843698130E-04 -1.976461830E-01
 -5.596054091E-02 -1.000000000E-03 6.179608472E-02 1.280313945E-03 -2.657820294E-01
 -5.294374968E-02 -1.000000000E-03 6.171409335E-02 1.255564757E-03 -2.613985492E-01
 -7.468104372E-02 -1.000000000E-03 6.202466173E-02 1.201438908E-03 -2.779818948E-01
 -2.433127584E-02 -1.000000000E-03 6.075089525E-02 8.826083505E-04 -2.263095242E-01
 2.683254074E-01 -1.000000000E-03 2.855358590E-02 9.865684674E-04 3.662968163E-02
 2.600303701E-01 -1.000000000E-03 2.989414324E-02 9.392605370E-04 3.187774471E-02
 2.538166105E-01 -1.000000000E-03 3.082459917E-02 9.830036165E-04 2.603375270E-02
 7.465235907E-01 -1.000000000E-03 -6.522077548E-02 1.047801972E-06 4.378692001E-01
 7.444462765E-01 -1.000000000E-03 -6.473385480E-02 2.351281673E-06 4.313751530E-01
 7.444162640E-01 -1.000000000E-03 -6.472678784E-02 3.577082048E-06 4.313281648E-01
 7.386007639E-01 -1.000000000E-03 -6.336759633E-02 2.202586315E-05 4.201334259E-01
 7.465285230E-01 -1.000000000E-03 -6.522193721E-02 5.855344890E-07 4.378913794E-01
 7.469862703E-01 -1.000000000E-03 -6.532932298E-02 6.852778867E-07 4.391932458E-01
 7.469869903E-01 -1.000000000E-03 -6.532949263E-02 1.150966575E-06 4.391886628E-01
 7.469840397E-01 -1.000000000E-03 -6.532879706E-02 4.323641408E-07 4.391853211E-01
 7.471186073E-01 -1.000000000E-03 -6.536037374E-02 1.195205647E-06 4.422205176E-01
 7.471188309E-01 -1.000000000E-03 -6.536042652E-02 1.725511900E-06 4.422273411E-01
 7.471189509E-01 -1.000000000E-03 -6.536045476E-02 2.958373754E-06 4.422167938E-01
 -2.459766606E-01 -1.000000000E-03 1.045025084E-02 1.114638057E-05 9.566061252E-01
 -2.464129856E-01 -1.000000000E-03 1.120586292E-02 -4.169474319E-07 9.548117421E-01
 -2.468781530E-01 -1.000000000E-03 1.201218444E-02 -1.008588122E-05 9.529695055E-01
 -2.472041842E-01 -1.000000000E-03 1.269599238E-02 -1.686567390E-05 9.446342445E-01
 -2.478326166E-01 -1.000000000E-03 1.408203595E-02 -2.638506099E-05 9.204208757E-01
 -2.489026079E-01 -1.000000000E-03 1.788053055E-02 -2.419884835E-05 7.979052733E-01
 -2.489277940E-01 -1.000000000E-03 1.848406902E-02 -1.310544405E-05 7.653110892E-01
 -2.490486745E-01 -1.000000000E-03 2.178893569E-02 5.330770233E-05 5.876899788E-01
 -2.487585511E-01 -1.000000000E-03 1.739670785E-02 -2.475877488E-05 8.127960182E-01
 5.207661212E-01 -1.000000000E-03 -1.644532594E-02 8.097951677E-04 2.326791898E-01
 5.361293002E-01 -1.000000000E-03 -1.950403800E-02 7.032903105E-04 2.444062506E-01
 5.687179932E-01 -1.000000000E-03 -2.612814746E-02 6.189048525E-04 2.732981687E-01
 5.569813110E-01 -1.000000000E-03 -2.372380958E-02 6.507436024E-04 2.642708663E-01
 4.957445880E-01 -1.000000000E-03 -1.151771555E-02 9.372703735E-04 2.154465457E-01
 4.795419615E-01 -1.000000000E-03 -8.389888512E-03 1.014756870E-03 2.039635109E-01
 4.287607089E-01 -1.000000000E-03 1.174137291E-03 9.518486821E-04 1.671252141E-01
 4.560493568E-01 -1.000000000E-03 -3.901501010E-03 9.185412767E-04 1.868631052E-01
 5.917286690E-01 -1.000000000E-03 -3.089490258E-02 5.512805183E-04 2.926988553E-01
 4.024048477E-01 -1.000000000E-03 5.996564476E-03 9.508376527E-04 1.455600624E-01
 3.616375347E-01 -1.000000000E-03 1.319628372E-02 1.121658468E-03 1.154108747E-01
 3.396768441E-01 -1.000000000E-03 1.699140696E-02 1.170766200E-03 9.614723391E-02
 6.343045027E-01 -1.000000000E-03 -3.994171978E-02 4.485582194E-04 3.185289621E-01
 6.653186981E-01 -1.000000000E-03 -4.672107713E-02 3.901934958E-04 3.444042349E-01
 6.872220825E-01 -1.000000000E-03 -5.160198323E-02 3.719373656E-04 3.660977240E-01
 6.586440843E-01 -1.000000000E-03 -4.525528325E-02 4.755744204E-04 3.387989748E-01
 6.904230475E-01 -1.000000000E-03 -5.232435907E-02 3.493259406E-04 3.689816596E-01
 6.021398185E-01 -1.000000000E-03 -3.310231544E-02 5.484315272E-04 3.008765191E-01
 7.205142801E-01 -1.000000000E-03 -5.917573259E-02 2.095172642E-04 3.951223231E-01
 -2.421432584E-01 -1.000000000E-03 3.434208885E-02 1.674486024E-03 -2.623062425E-01
 -2.434219971E-01 -1.000000000E-03 3.288768485E-02 1.424189902E-03 -1.854403102E-01
 -2.396794473E-01 -1.000000000E-03 3.630311412E-02 1.664573526E-03 -3.443509454E-01
 -2.457364587E-01 -1.000000000E-03 3.032627960E-02 6.914648076E-04 -4.622456915E-02
 -2.381100535E-01 -1.000000000E-03 3.754507993E-02 1.654034615E-03 -3.876763868E-01
 -2.372242435E-01 -1.000000000E-03 3.809775691E-02 1.862043604E-03 -3.941733877E-01
 7.409538654E-01 -1.000000000E-03 -6.571431692E-02 3.296537100E-05 4.208211141E-01
 7.254770341E-01 -1.000000000E-03 -6.655440361E-02 3.312044645E-05 3.971102587E-01
 7.362904027E-01 -1.000000000E-03 -6.597173698E-02 1.741814659E-05 4.138668330E-01
 7.445396653E-01 -1.000000000E-03 -6.551387666E-02 1.052155400E-05 4.336465005E-01
 7.410234997E-01 -1.000000000E-03 -6.571040321E-02 2.935173035E-05 4.209538267E-01
 7.471460236E-01 -1.000000000E-03 -6.536680706E-02 2.986838763E-06 4.465309496E-01
 7.471306326E-01 -1.000000000E-03 -6.536767839E-02 3.316160967E-06 4.486240190E-01
 7.470639701E-01 -1.000000000E-03 -6.537145183E-02 3.354118459E-06 4.471866951E-01
 7.471307515E-01 -1.000000000E-03 -6.536767161E-02 3.050079515E-06 4.486255683E-01
 7.471189509E-01 -1.000000000E-03 -6.536045476E-02 2.958373754E-06 4.422167938E-01
 7.445622376E-01 -1.000000000E-03 -6.551259386E-02 8.049690859E-06 4.337632127E-01
 7.470633810E-01 -1.000000000E-03 -6.537148546E-02 3.098704068E-06 4.471908182E-01
 7.460237633E-01 -1.000000000E-03 -6.543025958E-02 3.873901644E-06 4.424463968E-01
 7.467897752E-01 -1.000000000E-03 -6.538696967E-02 4.082251602E-06 4.453961686E-01
 7.467935530E-01 -1.000000000E-03 -6.538675331E-02 3.554865488E-06 4.454040011E-01
 7.225156491E-01 -1.000000000E-03 -5.963745049E-02 1.546195853E-04 3.974154853E-01
 7.219074717E-01 -1.000000000E-03 -5.949688636E-02 1.628929077E-04 3.967664504E-01
 7.205142801E-01 -1.000000000E-03 -5.917573259E-02 2.095172642E-04 3.951223231E-01
 7.383091153E-01 -1.000000000E-03 -6.329917390E-02 3.167359233E-05 4.195123314E-01
 7.386007639E-01 -1.000000000E-03 -6.336759633E-02 2.202586315E-05 4.201334259E-01
 4.487373112E-02 -1.000000000E-03 -6.415452171E-02 1.663687071E-03 1.892860408E-01
 -2.123895239E-02 -1.000000000E-03 -5.727898303E-02 1.902945349E-03 2.079367603E-01
 -3.007549961E-02 -1.000000000E-03 -5.616811279E-02 2.030757803E-03 2.129065234E-01
 -3.769709631E-02 -1.000000000E-03 -5.518564494E-02 2.015379814E-03 2.184694267E-01
 8.412002040E-03 -1.000000000E-03 -6.064740427E-02 1.869929031E-03 1.992279347E-01
 -2.650016774E-03 -1.000000000E-03 -5.946389686E-02 1.613734389E-03 2.041951370E-01
 2.906870266E-02 -1.000000000E-03 -6.272624949E-02 2.074636293E-03 1.912674723E-01
 3.548417294E-02 -1.000000000E-03 -6.331428169E-02 1.909452126E-03 1.912377779E-01
 2.276230687E-02 -1.000000000E-03 -6.210575086E-02 2.127780078E-03 1.934287653E-01
 1.377064388E-02 -1.000000000E-03 -6.121974059E-02 1.920783448E-03 1.979587035E-01
 -4.339585020E-02 -1.000000000E-03 -5.439570666E-02 1.784086973E-03 2.228359313E-01
 -1.905567207E-01 -1.000000000E-03 -2.240137969E-02 1.371075584E-03 4.399554507E-01
 -1.798249407E-01 -1.000000000E-03 -2.591086522E-02 1.891046715E-03 4.055488805E-01
 -1.949192404E-01 -1.000000000E-03 -2.069621087E-02 1.314005496E-03 4.622925279E-01
 -2.055119153E-01 -1.000000000E-03 -1.662978648E-02 6.433123400E-04 5.122723233E-01
 -1.723043973E-01 -1.000000000E-03 -2.832800515E-02 2.070832978E-03 3.831903865E-01
 -1.731050418E-01 -1.000000000E-03 -2.808778357E-02 2.062592054E-03 3.853483788E-01
 -1.728134377E-01 -1.000000000E-03 -2.817996819E-02 2.047421567E-03 3.845900815E-01
 -1.727442039E-01 -1.000000000E-03 -2.820143574E-02 2.046792225E-03 3.845138953E-01
 -1.726821221E-01 -1.000000000E-03 -2.821968745E-02 2.051443876E-03 3.844276888E-01
 -1.695043450E-01 -1.000000000E-03 -2.913888146E-02 2.001193927E-03 3.768673171E-01
 -1.033201195E-01 -1.000000000E-03 -4.471278884E-02 1.973578858E-03 2.662295187E-01
 -1.148690104E-01 -1.000000000E-03 -4.237756301E-02 2.212517350E-03 2.831014955E-01
 -1.435120351E-01 -1.000000000E-03 -3.608318328E-02 1.998840692E-03 3.134520718E-01
 -1.523469482E-01 -1.000000000E-03 -3.387663561E-02 1.819297078E-03 3.350696120E-01
 -1.587562912E-01 -1.000000000E-03 -3.215576919E-02 1.664776283E-03 3.504468624E-01
 -1.408074020E-01 -1.000000000E-03 -3.671735600E-02 1.982265502E-03 3.094738483E-01
 -1.245238391E-01 -1.000000000E-03 -4.042812872E-02 2.110385924E-03 2.948810510E-01
 -2.216695054E-01 -1.000000000E-03 -9.099042301E-03 4.657104469E-04 6.421694214E-01
 -2.217859420E-01 -1.000000000E-03 -9.041054740E-03 4.652002508E-04 6.432434399E-01
 -2.067128565E-01 -1.000000000E-03 -1.617398921E-02 5.676802765E-04 5.180061706E-01
 -2.071739199E-01 -1.000000000E-03 -1.597910068E-02 5.688271378E-04 5.203748154E-01
 -2.325455811E-01 -1.000000000E-03 -2.435606678E-03 3.765742662E-04 7.748581462E-01
 3.130485268E-01 -1.000000000E-03 2.139625852E-02 1.368690138E-03 7.169236708E-02
 2.683254074E-01 -1.000000000E-03 2.855358590E-02 9.865684674E-04 3.662968163E-02
 3.396768441E-01 -1.000000000E-03 1.699140696E-02 1.170766200E-03 9.614723391E-02
 -7.428850108E-02 -1.000000000E-03 -4.980385598E-02 1.792635790E-03 2.383101686E-01
 -8.007493466E-02 -1.000000000E-03 -4.884079447E-02 1.750747108E-03 2.422062843E-01
 -9.561080536E-02 -1.000000000E-03 -4.611049042E-02 1.844337610E-03 2.580104279E-01
 -8.772715479E-02 -1.000000000E-03 -4.754468596E-02 1.769923016E-03 2.490858212E-01
 -1.020154922E-01 -1.000000000E-03 -4.495937392E-02 1.937606725E-03 2.648099408E-01
 -6.523321799E-02 -1.000000000E-03 -5.121036454E-02 1.940553663E-03 2.354614896E-01
 -2.405999977E-02 -1.000000000E-03 -5.694291944E-02 1.833575101E-03 2.085417298E-01
 -2.123895239E-02 -1.000000000E-03 -5.727898303E-02 1.902945349E-03 2.079367603E-01
 -3.007549961E-02 -1.000000000E-03 -5.616811279E-02 2.030757803E-03 2.129065234E-01
 -4.339585020E-02 -1.000000000E-03 -5.439570666E-02 1.784086973E-03 2.228359313E-01
 -1.033201195E-01 -1.000000000E-03 -4.471278884E-02 1.973578858E-03 2.662295187E-01
 -5.604133455E-02 -1.000000000E-03 -5.261215737E-02 1.639603675E-03 2.319549978E-01
 -1.163920138E-01 -1.000000000E-03 6.133506932E-02 1.726914342E-03 -3.248123178E-01
 -8.858094473E-02 -1.000000000E-03 6.194347914E-02 1.151967138E-03 -2.929342755E-01
 -1.018653661E-01 -1.000000000E-03 6.182465760E-02 1.661935853E-03 -3.101233374E-01
 -7.468104372E-02 -1.000000000E-03 6.202466173E-02 1.201438908E-03 -2.779818948E-01
 -7.895076471E-02 -1.000000000E-03 6.206108529E-02 1.238760711E-03 -2.810336761E-01
 6.516067941E-02 -1.000000000E-03 -6.582650064E-02 1.585860609E-03 1.832702202E-01
 5.618999863E-02 -1.000000000E-03 -6.512328848E-02 1.580843034E-03 1.821113101E-01
 7.168028054E-02 -1.000000000E-03 -6.634219088E-02 1.260109937E-03 1.837128816E-01
 7.048869450E-02 -1.000000000E-03 -6.625212215E-02 1.243069759E-03 1.836784862E-01
 4.487373112E-02 -1.000000000E-03 -6.415452171E-02 1.663687071E-03 1.892860408E-01
 8.915115547E-02 -1.000000000E-03 -6.759394259E-02 1.278211871E-03 1.812076844E-01
 9.030405683E-02 -1.000000000E-03 -6.767527999E-02 1.185721135E-03 1.807832738E-01
 9.114165281E-02 -1.000000000E-03 -6.773124111E-02 1.258722847E-03 1.806560547E-01
 9.051312954E-02 -1.000000000E-03 -6.768975856E-02 1.190661038E-03 1.807879838E-01
 1.049387666E-01 -1.000000000E-03 -6.863035850E-02 9.283515205E-04 1.806419979E-01
 1.062738020E-01 -1.000000000E-03 -6.871102793E-02 9.336095179E-04 1.806964308E-01
 2.219663501E-01 -1.000000000E-03 -7.386852667E-02 1.325959326E-03 1.869007229E-01
 2.066698038E-01 -1.000000000E-03 -7.339505085E-02 8.481767564E-04 1.871975962E-01
 2.025943160E-01 -1.000000000E-03 -7.325464421E-02 8.968756367E-04 1.869391415E-01
 2.054329471E-01 -1.000000000E-03 -7.335710273E-02 7.783310809E-04 1.871986600E-01
 1.810266999E-01 -1.000000000E-03 -7.247463394E-02 9.452425154E-04 1.836401033E-01
 1.640365423E-01 -1.000000000E-03 -7.176136791E-02 1.180082849E-03 1.780081723E-01
 1.620648477E-01 -1.000000000E-03 -7.167768791E-02 1.048475730E-03 1.774349036E-01
 1.476297836E-01 -1.000000000E-03 -7.100225213E-02 8.046384908E-04 1.791670800E-01
 1.624237341E-01 -1.000000000E-03 -7.169353616E-02 1.058295041E-03 1.774364666E-01
 1.471206164E-01 -1.000000000E-03 -7.097720879E-02 8.232334217E-04 1.792013766E-01
 1.302127571E-01 -1.000000000E-03 -7.010450813E-02 4.698456132E-04 1.836493350E-01
 1.293724302E-01 -1.000000000E-03 -7.005869501E-02 5.532326859E-04 1.835136293E-01
 4.060256357E-01 -1.000000000E-03 -7.574190591E-02 1.609235004E-04 2.277987309E-01
 4.299040006E-01 -1.000000000E-03 -7.556743127E-02 2.479850089E-04 2.346957773E-01
 4.058854254E-01 -1.000000000E-03 -7.574277654E-02 1.482187801E-04 2.277673034E-01
 4.057452880E-01 -1.000000000E-03 -7.574354435E-02 1.608661183E-04 2.277345584E-01
 2.417020724E-01 -1.000000000E-03 -7.438825188E-02 9.792156588E-04 1.901410816E-01
 2.219663501E-01 -1.000000000E-03 -7.386852667E-02 1.325959326E-03 1.869007229E-01
 2.435735891E-01 -1.000000000E-03 -7.443871195E-02 8.658778858E-04 1.905396704E-01
 2.932543134E-01 -1.000000000E-03 -7.535838238E-02 2.520967424E-04 1.954992093E-01
 2.756744910E-01 -1.000000000E-03 -7.509220495E-02 4.527349993E-04 1.979709233E-01
 2.933846841E-01 -1.000000000E-03 -7.536009406E-02 2.467285701E-04 1.955213753E-01
 2.755055655E-01 -1.000000000E-03 -7.508944805E-02 4.493146488E-04 1.979470985E-01
 2.751506192E-01 -1.000000000E-03 -7.508261872E-02 4.848622647E-04 1.978884807E-01
 2.442920886E-01 -1.000000000E-03 -7.445513362E-02 8.815809746E-04 1.907734823E-01
 3.102803101E-01 -1.000000000E-03 -7.555742472E-02 3.791091780E-04 1.962577327E-01
 3.097866762E-01 -1.000000000E-03 -7.555309764E-02 3.414577325E-04 1.960452925E-01
 3.097103287E-01 -1.000000000E-03 -7.555232025E-02 3.397878309E-04 1.960304245E-01
 3.243115510E-01 -1.000000000E-03 -7.568170815E-02 4.097558920E-04 2.026914683E-01
 3.486591492E-01 -1.000000000E-03 -7.581081189E-02 1.499402653E-04 2.096552013E-01
 3.641172327E-01 -1.000000000E-03 -7.584458341E-02 4.796812919E-04 2.124044038E-01
 3.829021760E-01 -1.000000000E-03 -7.583126270E-02 3.512771962E-04 2.186819081E-01
 3.638685030E-01 -1.000000000E-03 -7.584421091E-02 4.915007696E-04 2.123521348E-01
 3.497415705E-01 -1.000000000E-03 -7.581667485E-02 1.238006441E-04 2.099449011E-01
 3.832161489E-01 -1.000000000E-03 -7.583067056E-02 3.536137498E-04 2.188262260E-01
 3.830552350E-01 -1.000000000E-03 -7.583110165E-02 3.458798175E-04 2.187411524E-01
 4.584035292E-01 -1.000000000E-03 -7.525126610E-02 8.601238321E-05 2.444897687E-01
 4.583087140E-01 -1.000000000E-03 -7.525250741E-02 9.509562150E-05 2.444441888E-01
 4.756130345E-01 -1.000000000E-03 -7.500397402E-02 2.580144506E-05 2.497146789E-01
 4.438517761E-01 -1.000000000E-03 -7.542729756E-02 1.688462144E-04 2.389287648E-01
 4.300566191E-01 -1.000000000E-03 -7.556609353E-02 2.418054779E-04 2.347294549E-01
 4.437130833E-01 -1.000000000E-03 -7.542880542E-02 1.686420717E-04 2.388742985E-01
 2.438991724E-01 -1.000000000E-03 -7.444680799E-02 8.594250570E-04 1.906559464E-01
 6.755321476E-01 -1.000000000E-03 -6.899905609E-02 1.015543416E-04 3.490317063E-01
 6.753765379E-01 -1.000000000E-03 -6.900598318E-02 1.077412850E-04 3.489025426E-01
 6.757056530E-01 -1.000000000E-03 -6.899104840E-02 1.079565921E-04 3.491922474E-01
 6.200610909E-01 -1.000000000E-03 -7.125557235E-02 2.096156711E-04 3.099642278E-01
 6.202278164E-01 -1.000000000E-03 -7.124929114E-02 2.114366002E-04 3.100750475E-01
 6.375324873E-01 -1.000000000E-03 -7.059549464E-02 3.885853411E-05 3.208216888E-01
 4.757115396E-01 -1.000000000E-03 -7.500242523E-02 2.831432025E-05 2.497576800E-01
 4.918650983E-01 -1.000000000E-03 -7.473167289E-02 1.190067458E-04 2.512214236E-01
 4.756130345E-01 -1.000000000E-03 -7.500397402E-02 2.580144506E-05 2.497146789E-01
 4.920057446E-01 -1.000000000E-03 -7.472905478E-02 1.227651637E-04 2.512564535E-01
 5.426587025E-01 -1.000000000E-03 -7.363779243E-02 1.584689253E-04 2.758640005E-01
 5.669867301E-01 -1.000000000E-03 -7.298292497E-02 1.350515754E-04 2.845529794E-01
 6.014577587E-01 -1.000000000E-03 -7.190810381E-02 1.687869017E-04 3.042504099E-01
 6.531673409E-01 -1.000000000E-03 -6.996541089E-02 1.538987614E-04 3.326876144E-01
 6.533823096E-01 -1.000000000E-03 -6.995662694E-02 1.531244898E-04 3.328355086E-01
 5.425234915E-01 -1.000000000E-03 -7.364120936E-02 1.630474292E-04 2.757899985E-01
 5.234219488E-01 -1.000000000E-03 -7.409527379E-02 2.761687943E-04 2.621934754E-01
 5.865285548E-01 -1.000000000E-03 -7.239498020E-02 1.233936026E-04 2.948037200E-01
 6.013492462E-01 -1.000000000E-03 -7.191192678E-02 1.646956535E-04 3.041974693E-01
 5.864587534E-01 -1.000000000E-03 -7.239728817E-02 1.257284426E-04 2.947666331E-01
 5.863350328E-01 -1.000000000E-03 -7.240103680E-02 1.283729172E-04 2.947086955E-01
 5.671335444E-01 -1.000000000E-03 -7.297886617E-02 1.325907241E-04 2.846153243E-01
 5.232630482E-01 -1.000000000E-03 -7.409900011E-02 2.720606229E-04 2.621075250E-01
 5.231397928E-01 -1.000000000E-03 -7.410158519E-02 2.731065851E-04 2.620488711E-01
 5 2
 2 3
 3 4
 4 1
 6 11
 11 12
 13 15
 15 16
 16 17
 17 26
 26 19
 19 18
 18 20
 20 22
 22 21
 21 23
 23 24
 24 25
 25 28
 28 27
 27 29
 7 8
 8 6
 10 9
 9 7
 13 14
 14 10
 30 32
 32 33
 33 34
 34 36
 36 37
 30 31
 31 35
 39 40
 40 41
 41 42
 42 43
 43 44
 39 38
 45 47
 47 48
 48 56
 56 55
 55 60
 60 58
 58 57
 57 59
 62 61
 51 49
 49 50
 50 46
 46 45
 63 54
 54 53
 53 52
 52 51
 63 62
 64 65
 65 66
 66 67
 73 74
 70 69
 69 71
 71 68
 68 64
 72 73
 72 70
 81 80
 80 83
 83 79
 79 78
 78 77
 77 76
 76 75
 81 82
 88 84
 84 85
 85 87
 87 86
 86 92
 92 101
 101 96
 96 99
 99 97
 97 98
 98 100
 100 102
 90 93
 93 94
 94 95
 88 89
 89 91
 91 90
 103 104
 104 106
 105 103
 107 105
 107 108
 117 114
 114 118
 119 121
 121 122
 122 123
 123 120
 120 116
 116 115
 115 117
 113 112
 112 119
 111 110
 113 109
 109 111
 124 127
 127 128
 125 126
 124 125
 136 135
 135 137
 137 138
 138 133
 133 134
 134 130
 136 129
 132 131
 132 139
 140 141
 141 145
 145 146
 146 147
 147 148
 148 144
 144 149
 149 154
 154 153
 153 152
 152 155
 155 156
 156 151
 151 150
 142 140
 142 143
 143 159
 159 160
 160 157
 157 158
 158 161
 163 162
 162 164
 165 166
 166 168
 168 167
 167 169
 169 175
 165 170
 170 176
 176 174
 171 173
 171 172
 180 181
 181 178
 178 179
 179 177
 182 183
 183 186
 193 194
 194 196
 196 195
 195 197
 197 198
 198 201
 201 199
 199 200
 200 202
 202 203
 203 204
 204 192
 192 191
 191 189
 189 190
 190 188
 188 187
 187 184
 184 185
 185 182
 205 207
 207 208
 208 227
 227 228
 228 224
 224 223
 223 225
 225 226
 226 222
 222 221
 221 218
 218 219
 219 220
 220 214
 214 212
 212 213
 213 215
 215 216
 216 217
 217 235
 235 211
 211 209
 209 210
 234 233
 233 206
 206 205
 232 234
 229 230
 230 232
 231 229
 242 244
 240 239
 239 248
 248 254
 254 253
 253 255
 255 256
 256 257
 257 247
 247 246
 246 251
 251 252
 252 258
 258 259
 259 245
 245 243
 243 242
 250 249
 249 241
 241 240
 250 237
 237 236
 236 238
ZONE T="USM3D-ME, MITAdapted_X0040k, Slice: Y=-0.035"
 STRANDID=0, SOLUTIONTIME=0
 Nodes=396, Elements=376, ZONETYPE=FELineSeg
 DATAPACKING=POINT
 DT=(DOUBLE DOUBLE DOUBLE DOUBLE DOUBLE )
 -2.471154319E-01 -3.500000000E-02 1.256653153E-02 6.972527302E-06 9.837682222E-01
 -2.475428003E-01 -3.500000000E-02 1.338311206E-02 -4.647101134E-05 9.821077908E-01
 -2.478103740E-01 -3.500000000E-02 1.409276909E-02 -1.127993286E-04 9.744787595E-01
 -2.490571203E-01 -3.500000000E-02 1.918905639E-02 -6.601403398E-05 7.865096060E-01
 -2.487351213E-01 -3.500000000E-02 1.713541717E-02 -1.526797612E-04 9.074914215E-01
 -2.486813602E-01 -3.500000000E-02 1.675222458E-02 -1.608905643E-04 9.263902988E-01
 -2.486070920E-01 -3.500000000E-02 1.647690765E-02 -1.718263225E-04 9.350549782E-01
 -2.490574541E-01 -3.500000000E-02 2.110702853E-02 6.662215210E-05 6.511538980E-01
 -2.490486745E-01 -3.500000000E-02 2.178893569E-02 1.663294359E-04 5.937263264E-01
 6.830093025E-01 -3.500000000E-02 -6.865610100E-02 5.343813539E-04 3.556181070E-01
 6.928757943E-01 -3.500000000E-02 -6.819975765E-02 5.491275218E-04 3.658511208E-01
 7.018451722E-01 -3.500000000E-02 -6.776238119E-02 5.449971418E-04 3.726595842E-01
 7.080740424E-01 -3.500000000E-02 -6.745357658E-02 3.423167906E-04 3.788776541E-01
 7.132333245E-01 -3.500000000E-02 -6.719043658E-02 4.934365198E-04 3.842372900E-01
 7.237786860E-01 -3.500000000E-02 -6.664769707E-02 4.419254121E-04 3.953309036E-01
 7.319622397E-01 -3.500000000E-02 -6.620561359E-02 3.508876214E-04 4.093680899E-01
 4.601581943E-01 -3.500000000E-02 -4.673844258E-03 1.731432282E-03 1.890790499E-01
 4.564545661E-01 -3.500000000E-02 -3.964438706E-03 1.741706199E-03 1.863327807E-01
 4.901741318E-01 -3.500000000E-02 -1.042008188E-02 1.742892315E-03 2.101686425E-01
 5.137922152E-01 -3.500000000E-02 -1.505290890E-02 1.504814105E-03 2.277984833E-01
 5.213095550E-01 -3.500000000E-02 -1.653039639E-02 1.510788964E-03 2.332596595E-01
 5.298011015E-01 -3.500000000E-02 -1.823585155E-02 1.471036125E-03 2.392531027E-01
 3.676914300E-01 -3.500000000E-02 1.216759604E-02 2.200085962E-03 1.182224072E-01
 3.568287188E-01 -3.500000000E-02 1.406861003E-02 2.371009382E-03 1.100569668E-01
 3.507912426E-01 -3.500000000E-02 1.510525764E-02 2.366788270E-03 1.052731379E-01
 3.270335911E-01 -3.500000000E-02 1.913425791E-02 2.077979332E-03 8.502457721E-02
 3.298164073E-01 -3.500000000E-02 1.866823135E-02 2.076456863E-03 8.723770643E-02
 3.018006628E-01 -3.500000000E-02 2.328759637E-02 2.022869864E-03 6.557054260E-02
 3.783877287E-01 -3.500000000E-02 1.030402193E-02 2.056476491E-03 1.281872723E-01
 4.030348393E-01 -3.500000000E-02 5.900957805E-03 1.659103130E-03 1.463998017E-01
 4.056947125E-01 -3.500000000E-02 5.424581912E-03 1.634008522E-03 1.485684395E-01
 4.062048346E-01 -3.500000000E-02 5.330979031E-03 1.633301087E-03 1.489529386E-01
 4.292913884E-01 -3.500000000E-02 1.110045655E-03 1.833719818E-03 1.658077150E-01
 4.298528206E-01 -3.500000000E-02 1.005229836E-03 1.831925862E-03 1.661955738E-01
 7.463827606E-01 -3.500000000E-02 -6.518745158E-02 3.300175690E-05 4.395772091E-01
 7.447126704E-01 -3.500000000E-02 -6.479598385E-02 3.404971042E-05 4.343562153E-01
 7.436622314E-01 -3.500000000E-02 -6.454864028E-02 7.695272356E-05 4.327116264E-01
 7.395960618E-01 -3.500000000E-02 -6.359830013E-02 8.985202229E-05 4.248843190E-01
 7.465553918E-01 -3.500000000E-02 -6.522811215E-02 1.682239498E-05 4.403534845E-01
 7.469860601E-01 -3.500000000E-02 -6.532923572E-02 2.555581265E-05 4.416324388E-01
 7.470112627E-01 -3.500000000E-02 -6.533517354E-02 4.185491675E-05 4.414720341E-01
 7.469079902E-01 -3.500000000E-02 -6.531082836E-02 1.670383155E-05 4.413550764E-01
 7.471125101E-01 -3.500000000E-02 -6.535892908E-02 4.188894802E-05 4.438043132E-01
 7.471203366E-01 -3.500000000E-02 -6.536077659E-02 6.044966684E-05 4.440431334E-01
 7.471245341E-01 -3.500000000E-02 -6.536176480E-02 1.035998318E-04 4.436739776E-01
 -2.454460350E-01 -3.500000000E-02 9.664197222E-03 2.171063284E-04 9.803987069E-01
 -2.437657462E-01 -3.500000000E-02 7.403335965E-03 3.540521706E-04 9.343506788E-01
 -2.425125135E-01 -3.500000000E-02 5.950993473E-03 4.733818417E-04 9.203351798E-01
 -2.456427456E-01 -3.500000000E-02 9.931587933E-03 1.988026152E-04 9.839640375E-01
 -2.457733710E-01 -3.500000000E-02 1.017393410E-02 1.880141454E-04 9.850242351E-01
 -2.471154319E-01 -3.500000000E-02 1.256653153E-02 6.972527302E-06 9.837682222E-01
 -2.417581875E-01 -3.500000000E-02 5.162642774E-03 5.559279424E-04 9.050367961E-01
 -2.398334880E-01 -3.500000000E-02 3.242894568E-03 7.627161080E-04 8.528081589E-01
 5.922889966E-01 -3.500000000E-02 -3.100159818E-02 1.327281843E-03 2.850659220E-01
 5.769976058E-01 -3.500000000E-02 -2.786424231E-02 1.392358488E-03 2.737446248E-01
 5.482535643E-01 -3.500000000E-02 -2.193484179E-02 1.505615076E-03 2.532617560E-01
 5.298011015E-01 -3.500000000E-02 -1.823585155E-02 1.471036125E-03 2.392531027E-01
 6.326408774E-01 -3.500000000E-02 -3.956773155E-02 1.087632659E-03 3.122046041E-01
 -2.353628683E-01 -3.500000000E-02 -4.665381014E-04 1.509618086E-03 7.663914870E-01
 -2.380724118E-01 -3.500000000E-02 1.722427636E-03 1.013698680E-03 8.213733995E-01
 -2.368824925E-01 -3.500000000E-02 6.971054539E-04 1.170569902E-03 7.929283898E-01
 -2.334737337E-01 -3.500000000E-02 -1.880809421E-03 1.707173295E-03 7.383708429E-01
 -2.320232065E-01 -3.500000000E-02 -2.894755091E-03 1.722343544E-03 7.204348405E-01
 -2.143154538E-01 -3.500000000E-02 -1.278456977E-02 2.379306767E-03 5.380112040E-01
 -2.398334880E-01 -3.500000000E-02 3.242894568E-03 7.627161080E-04 8.528081589E-01
 -2.264502110E-01 -3.500000000E-02 -6.420180251E-03 2.100033263E-03 6.433955971E-01