TITLE     = "Surface mesh and solution"
VARIABLES = "x"
"y"
"z"
"cfx"
"Cp"
ZONE T="CFD++, HM Y=-0.001"
STRANDID=0, SOLUTIONTIME=0
Nodes=1011, Elements=1010, ZONETYPE=FELineSeg
DATAPACKING=POINT
DT=(DOUBLE DOUBLE DOUBLE DOUBLE DOUBLE )
0.0767858480	-0.0009999500	0.0473205450	0.0021039128	-0.2295386300
0.0837027430	-0.0009999500	0.0460346010	0.0020347290	-0.2183219200
0.0865056960	-0.0009999500	0.0455076320	0.0020101919	-0.2138665500
0.0934063940	-0.0009999500	0.0441959430	0.0019452550	-0.2028677300
0.0962510630	-0.0009999500	0.0436494570	0.0019242642	-0.1982923400
0.1030331800	-0.0009999500	0.0423331740	0.0018722306	-0.1873569200
0.1059763100	-0.0009999500	0.0417562350	0.0018533095	-0.1826676000
0.1127329600	-0.0009999500	0.0404188220	0.0018046590	-0.1720845400
0.1156029200	-0.0009999500	0.0398453660	0.0017855779	-0.1676631100
0.1223089800	-0.0009999500	0.0384932230	0.0017397982	-0.1574208400
0.1250852900	-0.0009999500	0.0379284990	0.0017240486	-0.1532025200
0.1318253600	-0.0009999500	0.0365457200	0.0016816786	-0.1430876700
0.1345656100	-0.0009999500	0.0359788160	0.0016655351	-0.1390286400
0.1413503600	-0.0009999500	0.0345637650	0.0016328230	-0.1290395100
0.1440551100	-0.0009999500	0.0339951590	0.0016199466	-0.1250773800
0.1508767300	-0.0009999500	0.0325498770	0.0015771160	-0.1151444000
0.1537656200	-0.0009999500	0.0319330920	0.0015619309	-0.1109702500
0.1605812600	-0.0009999500	0.0304669420	0.0015156934	-0.1012132300
0.1634083800	-0.0009999500	0.0298543160	0.0014959595	-0.0972379070
0.1702656400	-0.0009999500	0.0283577520	0.0014556822	-0.0876346380
0.1730161000	-0.0009999500	0.0277532950	0.0014400451	-0.0838358770
0.1798430700	-0.0009999500	0.0262427520	0.0013926072	-0.0745464790
0.1827314000	-0.0009999500	0.0255993750	0.0013779923	-0.0706490870
0.1893990500	-0.0009999500	0.0241045930	0.0013384578	-0.0616500340
0.1923297600	-0.0009999500	0.0234433730	0.0013239350	-0.0576864560
0.1989217800	-0.0009999500	0.0219470320	0.0013011654	-0.0488276370
0.2016972800	-0.0009999500	0.0213132500	0.0012882802	-0.0451352860
0.2080282100	-0.0009999500	0.0198594130	0.0012594152	-0.0367897120
0.2110647100	-0.0009999500	0.0191581210	0.0012463271	-0.0328676480
0.2172568000	-0.0009999500	0.0177202370	0.0012140222	-0.0249938950
0.2201974100	-0.0009999500	0.0170337330	0.0012021385	-0.0213263720
0.2264654800	-0.0009999500	0.0155627350	0.0011773081	-0.0136208050
0.2292362200	-0.0009999500	0.0149091670	0.0011694949	-0.0102152780
0.2356424000	-0.0009999500	0.0133904790	0.0011542928	-0.0023084141
0.2382604300	-0.0009999500	0.0127667570	0.0011456832	0.0009457927
0.2448715400	-0.0009999500	0.0111840900	0.0011172932	0.0091438107
0.2476852100	-0.0009999500	0.0105071680	0.0011082924	0.0125915260
0.2542478400	-0.0009999500	0.0089208335	0.0010799637	0.0204868860
0.2572422600	-0.0009999500	0.0081935031	0.0010698974	0.0239992550
0.2637728500	-0.0009999500	0.0065999245	0.0010443062	0.0314761960
0.2668663300	-0.0009999500	0.0058415011	0.0010333971	0.0349954480
0.2734456700	-0.0009999500	0.0042211125	0.0010057207	0.0424778650
0.2767537200	-0.0009999500	0.0034026233	0.0009905803	0.0462505820
0.2832859200	-0.0009999500	0.0017791705	0.0009714313	0.0537876820
0.2865392900	-0.0009999500	0.0009670698	0.0009629878	0.0574809050
0.2931311400	-0.0009999500	-0.0006855661	0.0009473338	0.0649195540
0.2961865400	-0.0009999500	-0.0014547657	0.0009399849	0.0683750660
0.3026718200	-0.0009999500	-0.0030941614	0.0009159844	0.0755093690
0.3056565800	-0.0009999500	-0.0038516542	0.0009071994	0.0787260380
0.3121568000	-0.0009999500	-0.0055078142	0.0008839573	0.0855973060
0.3150314700	-0.0009999500	-0.0062430422	0.0008743772	0.0885800870
0.3215356500	-0.0009999500	-0.0079127969	0.0008470062	0.0953916460
0.3245649900	-0.0009999500	-0.0086934250	0.0008393650	0.0985814780
0.3311560800	-0.0009999500	-0.0103981990	0.0008144740	0.1053965800
0.3342487500	-0.0009999500	-0.0112011070	0.0008044093	0.1085594000
0.3409333800	-0.0009999500	-0.0129428760	0.0007856375	0.1153461000
0.3439848100	-0.0009999500	-0.0137408360	0.0007789508	0.1184237200
0.3506626800	-0.0009999500	-0.0154933880	0.0007640299	0.1251069300
0.3537432000	-0.0009999500	-0.0163046550	0.0007590731	0.1281775400
0.3602989900	-0.0009999500	-0.0180371420	0.0007434184	0.1346535500
0.3632725500	-0.0009999500	-0.0188255760	0.0007334997	0.1375615900
0.3697845900	-0.0009999500	-0.0205579550	0.0007154500	0.1438946600
0.3725993600	-0.0009999500	-0.0213091490	0.0007056425	0.1465888800
0.3791523000	-0.0009999500	-0.0230635390	0.0006844039	0.1528635900
0.3820876500	-0.0009999500	-0.0238519050	0.0006771986	0.1556665900
0.3886518200	-0.0009999500	-0.0256204060	0.0006657325	0.1619166300
0.3916412000	-0.0009999500	-0.0264283360	0.0006644528	0.1647507300
0.3982811600	-0.0009999500	-0.0282284430	0.0006484215	0.1709296900
0.4014417800	-0.0009999500	-0.0290879850	0.0006410238	0.1738235400
0.4080366500	-0.0009999500	-0.0308869890	0.0006154927	0.1798018400
0.4111335900	-0.0009999500	-0.0317343510	0.0006046299	0.1826017500
0.4177824900	-0.0009999500	-0.0335590880	0.0005851735	0.1886283500
0.4207274300	-0.0009999500	-0.0343696770	0.0005778932	0.1912918100
0.4272836400	-0.0009999500	-0.0361795050	0.0005629842	0.1971777400
0.4302216500	-0.0009999500	-0.0369928400	0.0005563241	0.1998027600
0.4367944000	-0.0009999500	-0.0388175880	0.0005428413	0.2056785100
0.4396561400	-0.0009999500	-0.0396142970	0.0005356896	0.2082307200
0.4462220400	-0.0009999500	-0.0414473120	0.0005195206	0.2140817300
0.4492243500	-0.0009999500	-0.0422878270	0.0005123633	0.2167323800
0.4558432100	-0.0009999500	-0.0441459490	0.0004944070	0.2225062400
0.4588669500	-0.0009999500	-0.0449971670	0.0004893146	0.2251179100
0.4654913200	-0.0009999500	-0.0468671360	0.0004723858	0.2307915100
0.4685951500	-0.0009999500	-0.0477457160	0.0004684076	0.2334325900
0.4752293800	-0.0009999500	-0.0496287940	0.0004529112	0.2390391800
0.4781659200	-0.0009999500	-0.0504645410	0.0004448474	0.2415118700
0.4847086700	-0.0009999500	-0.0523315740	0.0004308818	0.2470580900
0.4875896000	-0.0009999500	-0.0531558170	0.0004244117	0.2495193900
0.4941256300	-0.0009999500	-0.0550306850	0.0004100357	0.2551170900
0.4968858700	-0.0009999500	-0.0558244850	0.0004059464	0.2574989500
0.5034046200	-0.0009999500	-0.0577039830	0.0003905573	0.2631122500
0.5063098700	-0.0009999500	-0.0585438050	0.0003838583	0.2655922800
0.5128883100	-0.0009999500	-0.0604502930	0.0003643851	0.2711423600
0.5158701500	-0.0009999500	-0.0613167210	0.0003560459	0.2736226300
0.5225740700	-0.0009999500	-0.0632697570	0.0003415850	0.2791696500
0.5255017900	-0.0009999500	-0.0641249050	0.0003358961	0.2816143600
0.5322088600	-0.0009999500	-0.0660890340	0.0003215980	0.2872404500
0.5351905800	-0.0009999500	-0.0669644920	0.0003139755	0.2897244100
0.5418149800	-0.0009999500	-0.0689145180	0.0002988444	0.2952970600
0.5447728600	-0.0009999500	-0.0697874870	0.0002908000	0.2977875500
0.5513252600	-0.0009999500	-0.0717262480	0.0002717559	0.3033052400
0.5541487300	-0.0009999500	-0.0725637600	0.0002645300	0.3057037600
0.5607108500	-0.0009999500	-0.0745152090	0.0002470437	0.3112931800
0.5636211000	-0.0009999500	-0.0753828730	0.0002410226	0.3137619500
0.5701726100	-0.0009999500	-0.0773411020	0.0002289440	0.3192666200
0.5730919800	-0.0009999500	-0.0782159420	0.0002233728	0.3216886800
0.5797232400	-0.0009999500	-0.0802081970	0.0002075262	0.3271685800
0.5827777400	-0.0009999500	-0.0811282770	0.0002002769	0.3297007400
0.5893802000	-0.0009999500	-0.0831222610	0.0001812079	0.3352865300
0.5923881500	-0.0009999500	-0.0840330500	0.0001731711	0.3378697300
0.5990786600	-0.0009999500	-0.0860642270	0.0001548857	0.3436334100
0.6017779700	-0.0009999500	-0.0868858250	0.0001482934	0.3459522700
0.6084517200	-0.0009999500	-0.0889223370	0.0001293657	0.3515976400
0.6112372300	-0.0009999500	-0.0897745560	0.0001225494	0.3539423900
0.6178176400	-0.0009999500	-0.0917929930	0.0001040525	0.3595099200
0.6206729400	-0.0009999500	-0.0926711260	0.0000978136	0.3619254500
0.6271997700	-0.0009999500	-0.0946835500	0.0000789264	0.3674183800
0.6300732500	-0.0009999500	-0.0955719050	0.0000715871	0.3698323400
0.6366063400	-0.0009999500	-0.0975968690	0.0000523795	0.3752830300
0.6396632800	-0.0009999500	-0.0985469670	0.0000433404	0.3778144700
0.6461123800	-0.0009999500	-0.1005566800	0.0000282690	0.3831310000
0.6491297500	-0.0009999500	-0.1014995300	0.0000212087	0.3855920100
0.6554000400	-0.0009999500	-0.1034639300	0.0000054994	0.3907257900
0.6583229300	-0.0009999500	-0.1043820800	-0.0000010009	0.3931182000
0.6642944200	-0.0009999500	-0.1062625900	-0.0000161015	0.3980269700
0.6669167900	-0.0009999500	-0.1070905200	-0.0000219933	0.4001983400
0.6724360000	-0.0009999500	-0.1088370700	-0.0000348051	0.4047905200
0.6748647100	-0.0009999500	-0.1096074900	-0.0000396660	0.4067818800
0.6799731300	-0.0009999500	-0.1112313900	-0.0000502877	0.4109193700
0.6822128900	-0.0009999500	-0.1119450000	-0.0000539142	0.4127253300
0.6869073500	-0.0009999500	-0.1134436400	-0.0000627923	0.4165061400
0.6890434600	-0.0009999500	-0.1141270200	-0.0000667696	0.4181892900
0.6934194000	-0.0009999500	-0.1155295700	-0.0000764099	0.4215077200
0.6953441500	-0.0009999500	-0.1161476800	-0.0000821364	0.4229468100
0.6993840300	-0.0009999500	-0.1174473300	-0.0000941881	0.4260597800
0.7010017000	-0.0009999500	-0.1179686700	-0.0000982744	0.4273098700
0.7047666900	-0.0009999500	-0.1191839900	-0.0001041308	0.4301974800
0.7059460300	-0.0009999500	-0.1195652400	-0.0001049996	0.4310982500
0.7093083300	-0.0009999500	-0.1206537300	-0.0001114112	0.4335897600
0.7101396300	-0.0009999500	-0.1209231900	-0.0001118393	0.4342011800
0.7132477200	-0.0009999500	-0.1219319300	-0.0001170461	0.4363956500
0.7138082400	-0.0009999500	-0.1221140500	-0.0001177205	0.4367782500
0.7166664600	-0.0009999500	-0.1230437400	-0.0001248872	0.4387459200
0.7170238500	-0.0009999500	-0.1231601000	-0.0001254506	0.4389934800
0.7195927500	-0.0009999500	-0.1239973100	-0.0001312845	0.4407009200
0.7198927400	-0.0009999500	-0.1240951700	-0.0001318003	0.4408941600
0.7221223700	-0.0009999500	-0.1248230300	-0.0001378981	0.4423613000
0.7225228000	-0.0009999500	-0.1249538500	-0.0001387543	0.4426246300
0.7244761600	-0.0009999500	-0.1255925100	-0.0001420530	0.4439310400
0.7248700300	-0.0009999500	-0.1257214000	-0.0001424257	0.4442021300
0.7264956800	-0.0009999500	-0.1262536500	-0.0001432223	0.4453291300
0.7269163100	-0.0009999500	-0.1263914900	-0.0001432273	0.4456211000
0.7283099900	-0.0009999500	-0.1268483400	-0.0001429552	0.4465925400
0.7287104700	-0.0009999500	-0.1269797100	-0.0001426814	0.4468787000
0.7298688900	-0.0009999500	-0.1273598700	-0.0001412798	0.4477079800
0.7302761100	-0.0009999500	-0.1274935800	-0.0001406652	0.4479959000
0.7312739500	-0.0009999500	-0.1278213400	-0.0001386983	0.4486991800
0.7316322300	-0.0009999500	-0.1279390800	-0.0001378590	0.4489581300
0.7324551900	-0.0009999500	-0.1282096100	-0.0001358834	0.4495519700
0.7327812900	-0.0009999500	-0.1283168500	-0.0001349854	0.4497859800
0.7334942200	-0.0009999500	-0.1285513800	-0.0001332220	0.4503020300
0.7337632800	-0.0009999500	-0.1286399200	-0.0001322405	0.4505035300
0.7343610500	-0.0009999500	-0.1288366800	-0.0001298797	0.4509496400
0.7346030500	-0.0009999500	-0.1289163700	-0.0001286354	0.4511252000
0.7351323400	-0.0009999500	-0.1290906700	-0.0001263285	0.4515059000
0.7353344000	-0.0009999500	-0.1291572300	-0.0001256344	0.4516540200
0.7357839300	-0.0009999500	-0.1293053600	-0.0001240359	0.4519867600
0.7359697200	-0.0009999500	-0.1293665900	-0.0001236862	0.4521242700
0.7363644200	-0.0009999500	-0.1294967100	-0.0001226937	0.4524124600
0.7365310800	-0.0009999500	-0.1295516300	-0.0001231993	0.4525391800
0.7368556300	-0.0009999500	-0.1296586700	-0.0001248180	0.4527839400
0.7370467800	-0.0009999500	-0.1297217200	-0.0001271177	0.4529386500
0.7373230500	-0.0009999500	-0.1298128400	-0.0001312497	0.4531596600
0.7375264800	-0.0009999500	-0.1298799500	-0.0001360468	0.4533513500
0.7378007800	-0.0009999500	-0.1299704500	-0.0001393473	0.4536130100
0.7378644300	-0.0009999500	-0.1299914400	-0.0001397786	0.4536812900
0.7379490700	-0.0009999500	-0.1300193800	-0.0001218381	0.4537987400
0.7381268100	-0.0009999500	-0.1300780300	-0.0000829114	0.4540284000
0.7382763600	-0.0009999500	-0.1301274000	0.0001544217	0.4539916200
0.7383765600	-0.0009999500	-0.1301604800	0.0002977236	0.4540003500
0.7384609600	-0.0009999500	-0.1301883300	0.0005573140	0.4535534700
0.7386058000	-0.0009999500	-0.1302361300	0.0010486016	0.4526897400
0.7384538700	-0.0009999500	-0.1302315300	0.0008668263	0.4523895700
0.7383650500	-0.0009999500	-0.1302288500	0.0007683421	0.4521846200
0.7382583600	-0.0009999500	-0.1302256100	0.0006646108	0.4522526300
0.7381021400	-0.0009999500	-0.1302208800	0.0004897823	0.4523662300
0.7379156900	-0.0009999500	-0.1302152300	0.0004896364	0.4522865100
0.7378256300	-0.0009999500	-0.1302124900	0.0004880354	0.4522291700
0.7377584000	-0.0009999500	-0.1302104400	0.0004897182	0.4521750800
0.7374698500	-0.0009999500	-0.1302017000	0.0004889728	0.4519733800
0.7372555700	-0.0009999500	-0.1301951900	0.0004913875	0.4517451800
0.7369648800	-0.0009999500	-0.1301863300	0.0004915953	0.4514514200
0.7367636600	-0.0009999500	-0.1301801900	0.0004921220	0.4512158900
0.7364220600	-0.0009999500	-0.1301697600	0.0004955071	0.4508272700
0.7362467600	-0.0009999500	-0.1301644000	0.0004971180	0.4506227100
0.7358312600	-0.0009999500	-0.1301516400	0.0004994009	0.4501517100
0.7356357600	-0.0009999500	-0.1301456400	0.0005004829	0.4499263200
0.7351626800	-0.0009999500	-0.1301310800	0.0005049531	0.4493725600
0.7349500700	-0.0009999500	-0.1301245100	0.0005068522	0.4491228200
0.7343930600	-0.0009999500	-0.1301072800	0.0005112347	0.4484772400
0.7341384300	-0.0009999500	-0.1300993900	0.0005134769	0.4481795100
0.7335094200	-0.0009999500	-0.1300798200	0.0005204873	0.4474494500
0.7332263000	-0.0009999500	-0.1300710000	0.0005232291	0.4471270400
0.7324761200	-0.0009999500	-0.1300475400	0.0005281650	0.4462969900
0.7321329700	-0.0009999500	-0.1300368000	0.0005289875	0.4459144800
0.7312671500	-0.0009999500	-0.1300095500	0.0005360386	0.4449495400
0.7308902100	-0.0009999500	-0.1299976600	0.0005386331	0.4445388600
0.7298401600	-0.0009999500	-0.1299643700	0.0005463881	0.4434663700
0.7294118400	-0.0009999500	-0.1299507300	0.0005494513	0.4430474000
0.7281922100	-0.0009999500	-0.1299117200	0.0005590550	0.4418212500
0.7277714000	-0.0009999500	-0.1298982100	0.0005623423	0.4414033300
0.7263014900	-0.0009999500	-0.1298507300	0.0005731517	0.4399891200
0.7258623200	-0.0009999500	-0.1298364700	0.0005760294	0.4395734700
0.7241433300	-0.0009999500	-0.1297803200	0.0005890693	0.4379837200
0.7237414700	-0.0009999500	-0.1297671200	0.0005918169	0.4376201000
0.7216742600	-0.0009999500	-0.1296987400	0.0006029425	0.4358308900
0.7212776500	-0.0009999500	-0.1296855500	0.0006051166	0.4354961500
0.7189173700	-0.0009999500	-0.1296064000	0.0006208759	0.4334946300
0.7186285300	-0.0009999500	-0.1295966500	0.0006221845	0.4332617200
0.7158279400	-0.0009999500	-0.1295013000	0.0006337109	0.4310311100
0.7154559500	-0.0009999500	-0.1294885400	0.0006365567	0.4307370500
0.7122899300	-0.0009999500	-0.1293788900	0.0006484202	0.4284186700
0.7117218400	-0.0009999500	-0.1293590400	0.0006516139	0.4280226200
0.7083039300	-0.0009999500	-0.1292383500	0.0006683236	0.4256031800
0.7075330000	-0.0009999500	-0.1292108700	0.0006726607	0.4250733900
0.7038999800	-0.0009999500	-0.1290799200	0.0006909562	0.4227006100
0.7029300300	-0.0009999500	-0.1290445600	0.0006948518	0.4221071000
0.6989156000	-0.0009999500	-0.1288965500	0.0007132390	0.4197906600
0.6975525000	-0.0009999500	-0.1288456800	0.0007185114	0.4190168400
0.6931720400	-0.0009999500	-0.1286800200	0.0007345390	0.4165924200
0.6913755500	-0.0009999500	-0.1286111600	0.0007404775	0.4156480700
0.6865868000	-0.0009999500	-0.1284249600	0.0007546567	0.4131807400
0.6844291700	-0.0009999500	-0.1283398400	0.0007623201	0.4121009400
0.6793911500	-0.0009999500	-0.1281380200	0.0007788300	0.4096726200
0.6770637000	-0.0009999500	-0.1280434100	0.0007856766	0.4085973200
0.6716635800	-0.0009999500	-0.1278204200	0.0008012011	0.4062078300
0.6691222200	-0.0009999500	-0.1277138900	0.0008088867	0.4051240100
0.6633240600	-0.0009999500	-0.1274668100	0.0008253619	0.4027397000
0.6605776000	-0.0009999500	-0.1273479500	0.0008304389	0.4016518300
0.6543164300	-0.0009999500	-0.1270723800	0.0008430976	0.3992669600
0.6512569200	-0.0009999500	-0.1269355300	0.0008474814	0.3981615300
0.6447212700	-0.0009999500	-0.1266381900	0.0008632097	0.3959525200
0.6414658400	-0.0009999500	-0.1264876600	0.0008694912	0.3949036900
0.6347451200	-0.0009999500	-0.1261716300	0.0008846667	0.3927559000
0.6316146900	-0.0009999500	-0.1260221000	0.0008899474	0.3917417800
0.6247547300	-0.0009999500	-0.1256891300	0.0009012889	0.3895526200
0.6216911100	-0.0009999500	-0.1255381700	0.0009079787	0.3886270200
0.6147894900	-0.0009999500	-0.1251928100	0.0009259016	0.3867089700
0.6119463400	-0.0009999500	-0.1250485000	0.0009352474	0.3859559300
0.6048891500	-0.0009999500	-0.1246850500	0.0009549086	0.3840383000
0.6021926400	-0.0009999500	-0.1245442400	0.0009638258	0.3833017300
0.5952548400	-0.0009999500	-0.1241769700	0.0009778786	0.3814840000
0.5922611400	-0.0009999500	-0.1240163400	0.0009839578	0.3807581400
0.5853487300	-0.0009999500	-0.1236404200	0.0009987617	0.3792360400
0.5822774800	-0.0009999500	-0.1234711700	0.0010023678	0.3785963400
0.5753724600	-0.0009999500	-0.1230856900	0.0010160176	0.3771471700
0.5721787800	-0.0009999500	-0.1229050800	0.0010190584	0.3764657100
0.5652798400	-0.0009999500	-0.1225099500	0.0010288647	0.3750010400
0.5622302300	-0.0009999500	-0.1223331200	0.0010314881	0.3743670000
0.5554126500	-0.0009999500	-0.1219330100	0.0010407344	0.3730332600
0.5523785900	-0.0009999500	-0.1217528400	0.0010473367	0.3724706800
0.5455476600	-0.0009999500	-0.1213423900	0.0010610551	0.3712582000
0.5426076700	-0.0009999500	-0.1211637000	0.0010656414	0.3707602000
0.5357877600	-0.0009999500	-0.1207445100	0.0010698158	0.3695856600
0.5327095400	-0.0009999500	-0.1205531600	0.0010709889	0.3690555700
0.5258178700	-0.0009999500	-0.1201199100	0.0010768677	0.3679288900
0.5227165200	-0.0009999500	-0.1199227600	0.0010811718	0.3674656500
0.5157421800	-0.0009999500	-0.1194745100	0.0010951408	0.3664553500
0.5126985900	-0.0009999500	-0.1192767500	0.0011010399	0.3660230300
0.5057309300	-0.0009999500	-0.1188191000	0.0011154248	0.3650985700
0.5026325600	-0.0009999500	-0.1186134300	0.0011217526	0.3646798100
0.4957988600	-0.0009999500	-0.1181550100	0.0011399368	0.3638052900
0.4927815200	-0.0009999500	-0.1179505100	0.0011440102	0.3634383100
0.4860130500	-0.0009999500	-0.1174871100	0.0011595059	0.3626356700
0.4831478000	-0.0009999500	-0.1172889900	0.0011670882	0.3623196500
0.4763646700	-0.0009999500	-0.1168153400	0.0011808962	0.3616260000
0.4733755900	-0.0009999500	-0.1166045300	0.0011892195	0.3613480900
0.4665888500	-0.0009999500	-0.1161212300	0.0012018789	0.3606777500
0.4635435600	-0.0009999500	-0.1159022200	0.0012053906	0.3603735600
0.4566653400	-0.0009999500	-0.1154026800	0.0012051269	0.3597253600
0.4534482100	-0.0009999500	-0.1151667000	0.0012052291	0.3594695900
0.4465837800	-0.0009999500	-0.1146582300	0.0012139422	0.3590228300
0.4434512600	-0.0009999500	-0.1144239400	0.0012159958	0.3588042300
0.4365960700	-0.0009999500	-0.1139062200	0.0012242998	0.3582952600
0.4334873300	-0.0009999500	-0.1136691900	0.0012245602	0.3580446800
0.4266904900	-0.0009999500	-0.1131459900	0.0012324595	0.3575421000
0.4237288200	-0.0009999500	-0.1129158800	0.0012381014	0.3573771400
0.4169283500	-0.0009999500	-0.1123825700	0.0012459292	0.3570502100
0.4138893500	-0.0009999500	-0.1121420000	0.0012507323	0.3569456600
0.4071095300	-0.0009999500	-0.1116003200	0.0012617594	0.3567189900
0.4040649500	-0.0009999500	-0.1113548000	0.0012685107	0.3565938800
0.3971929600	-0.0009999500	-0.1107954300	0.0012805616	0.3562834600
0.3939929600	-0.0009999500	-0.1105324800	0.0012870850	0.3561488700
0.3871805100	-0.0009999500	-0.1099674000	0.0013035012	0.3559866000
0.3839165000	-0.0009999500	-0.1096941200	0.0013067493	0.3559451400
0.3770613100	-0.0009999500	-0.1091146700	0.0013217927	0.3559338500
0.3739758700	-0.0009999500	-0.1088514400	0.0013259401	0.3559435300
0.3672027300	-0.0009999500	-0.1082682100	0.0013371426	0.3559441000
0.3641747800	-0.0009999500	-0.1080050800	0.0013461355	0.3559464800
0.3574169900	-0.0009999500	-0.1074124400	0.0013556315	0.3559249600
0.3545150500	-0.0009999500	-0.1071556200	0.0013582617	0.3559410900
0.3478032400	-0.0009999500	-0.1065562700	0.0013564764	0.3560319800
0.3447393500	-0.0009999500	-0.1062801400	0.0013539565	0.3560846700
0.3379863800	-0.0009999500	-0.1056659300	0.0013528488	0.3562200400
0.3348141900	-0.0009999500	-0.1053746800	0.0013538802	0.3562940400
0.3279396000	-0.0009999500	-0.1047375600	0.0013616764	0.3564811900
0.3247993000	-0.0009999500	-0.1044437600	0.0013655514	0.3565906300
0.3179221500	-0.0009999500	-0.1037942100	0.0013747070	0.3568797400
0.3147413400	-0.0009999500	-0.1034909300	0.0013793261	0.3570283400
0.3079655200	-0.0009999500	-0.1028387000	0.0013927918	0.3574010400
0.3048518900	-0.0009999500	-0.1025361500	0.0014038673	0.3575907300
0.2981723200	-0.0009999500	-0.1018810000	0.0014184472	0.3579897300
0.2952194200	-0.0009999500	-0.1015886700	0.0014189646	0.3581447000
0.2885663800	-0.0009999500	-0.1009239400	0.0014232841	0.3585663400
0.2854990100	-0.0009999500	-0.1006145400	0.0014178097	0.3588021700
0.2789068800	-0.0009999500	-0.0999434520	0.0014209264	0.3593993500
0.2757500100	-0.0009999500	-0.0996189560	0.0014226591	0.3597043800
0.2691307700	-0.0009999500	-0.0989321400	0.0014225956	0.3602732700
0.2657093400	-0.0009999500	-0.0985735580	0.0014271376	0.3605746300
0.2590891400	-0.0009999500	-0.0978729870	0.0014407965	0.3612027800
0.2557276500	-0.0009999500	-0.0975136680	0.0014481225	0.3615468700
0.2490883900	-0.0009999500	-0.0967970040	0.0014629680	0.3623046300
0.2457355300	-0.0009999500	-0.0964314270	0.0014724975	0.3627207300
0.2391062400	-0.0009999500	-0.0957014190	0.0014928481	0.3635896700
0.2361935100	-0.0009999500	-0.0953775270	0.0014986014	0.3639700400
0.2296661300	-0.0009999500	-0.0946448000	0.0015152470	0.3648499000
0.2269769900	-0.0009999500	-0.0943399890	0.0015201846	0.3652238000
0.2204017900	-0.0009999500	-0.0935878010	0.0015194409	0.3661174500
0.2173894600	-0.0009999500	-0.0932396350	0.0015199120	0.3665486900
0.2109126300	-0.0009999500	-0.0924839900	0.0015162614	0.3675317500
0.2077329900	-0.0009999500	-0.0921091290	0.0015155331	0.3680612700
0.2012928700	-0.0009999500	-0.0913424790	0.0015252223	0.3692196300
0.1981032300	-0.0009999500	-0.0909588410	0.0015314029	0.3698323700
0.1917419900	-0.0009999500	-0.0901860070	0.0015425818	0.3710835900
0.1885259900	-0.0009999500	-0.0897913500	0.0015494481	0.3717113700
0.1821162000	-0.0009999500	-0.0889964180	0.0015578657	0.3728635000
0.1789847000	-0.0009999500	-0.0886041370	0.0015629378	0.3733997300
0.1725338000	-0.0009999500	-0.0877873820	0.0015731944	0.3745444700
0.1694731700	-0.0009999500	-0.0873959210	0.0015788169	0.3751438600
0.1628319200	-0.0009999500	-0.0865372200	0.0015944202	0.3766561700
0.1598822500	-0.0009999500	-0.0861518090	0.0015979327	0.3773662700
0.1530178800	-0.0009999500	-0.0852449910	0.0016121402	0.3790205100
0.1502257300	-0.0009999500	-0.0848721120	0.0016170041	0.3797016700
0.1432832900	-0.0009999500	-0.0839347320	0.0016272419	0.3813988900
0.1404164400	-0.0009999500	-0.0835433300	0.0016323626	0.3821119100
0.1335110500	-0.0009999500	-0.0825899320	0.0016443814	0.3838531400
0.1305816600	-0.0009999500	-0.0821808730	0.0016468218	0.3846202200
0.1236727500	-0.0009999500	-0.0812051000	0.0016579797	0.3865301600
0.1209296400	-0.0009999500	-0.0808132740	0.0016610809	0.3873390600
0.1140552900	-0.0009999500	-0.0798201340	0.0016633368	0.3894398500
0.1112756300	-0.0009999500	-0.0794139580	0.0016670855	0.3902995900
0.1044506100	-0.0009999500	-0.0784051120	0.0016716359	0.3924010400
0.1016369900	-0.0009999500	-0.0779843630	0.0016733473	0.3932677500
0.0948601140	-0.0009999500	-0.0769590810	0.0016793505	0.3953993300
0.0919608550	-0.0009999500	-0.0765152570	0.0016823466	0.3963520800
0.0851513300	-0.0009999500	-0.0754602550	0.0016928856	0.3987354000
0.0821895450	-0.0009999500	-0.0749957930	0.0016971260	0.3998250100
0.0753693510	-0.0009999500	-0.0739131720	0.0017104638	0.4024052000
0.0725133270	-0.0009999500	-0.0734542460	0.0017144516	0.4035033900
0.0655841530	-0.0009999500	-0.0723268840	0.0017283119	0.4061979700
0.0627731680	-0.0009999500	-0.0718637630	0.0017301378	0.4073126900
0.0558343120	-0.0009999500	-0.0707061370	0.0017444133	0.4101423300
0.0530698520	-0.0009999500	-0.0702390670	0.0017487871	0.4112899600
0.0461765530	-0.0009999500	-0.0690595060	0.0017625331	0.4142804700
0.0432616250	-0.0009999500	-0.0685542000	0.0017723347	0.4156109700
0.0364685690	-0.0009999500	-0.0673611830	0.0017918980	0.4188400800
0.0334847200	-0.0009999500	-0.0668301880	0.0018018547	0.4203038500
0.0266815030	-0.0009999500	-0.0656032560	0.0018152272	0.4236865300
0.0237656220	-0.0009999500	-0.0650703390	0.0018142159	0.4251270900
0.0169136280	-0.0009999500	-0.0638008560	0.0018210602	0.4286051400
0.0139528470	-0.0009999500	-0.0632447450	0.0018240974	0.4301923800
0.0071449932	-0.0009999500	-0.0619481620	0.0018398312	0.4340737200
0.0042888382	-0.0009999500	-0.0613966440	0.0018467772	0.4357839500
-0.0026017395	-0.0009999500	-0.0600471240	0.0018591975	0.4399119600
-0.0053563742	-0.0009999500	-0.0594999570	0.0018626030	0.4415978200
-0.0122532080	-0.0009999500	-0.0581103900	0.0018783475	0.4459694300
-0.0149133700	-0.0009999500	-0.0575667060	0.0018845306	0.4477182900
-0.0217867010	-0.0009999500	-0.0561414440	0.0018978425	0.4524197300
-0.0246060550	-0.0009999500	-0.0555481050	0.0019044686	0.4544094200
-0.0314601730	-0.0009999500	-0.0540839250	0.0019201700	0.4593958600
-0.0342080630	-0.0009999500	-0.0534879790	0.0019250021	0.4614573700
-0.0410843380	-0.0009999500	-0.0519738910	0.0019390864	0.4667931500
-0.0437342000	-0.0009999500	-0.0513814020	0.0019467536	0.4689575100
-0.0505689460	-0.0009999500	-0.0498292780	0.0019570592	0.4747801100
-0.0533517640	-0.0009999500	-0.0491872090	0.0019613958	0.4772392500
-0.0601130720	-0.0009999500	-0.0476021800	0.0019730823	0.4834015400
-0.0627824140	-0.0009999500	-0.0469662470	0.0019755973	0.4858983500
-0.0694884880	-0.0009999500	-0.0453426760	0.0019883380	0.4923667000
-0.0720467340	-0.0009999500	-0.0447131470	0.0019965082	0.4949631400
-0.0785756040	-0.0009999500	-0.0430802810	0.0020105381	0.5019450800
-0.0812101890	-0.0009999500	-0.0424102950	0.0020177689	0.5048860300
-0.0874693770	-0.0009999500	-0.0407926890	0.0020255225	0.5121562500
-0.0900047570	-0.0009999500	-0.0401263720	0.0020271198	0.5152059800
-0.0960383120	-0.0009999500	-0.0385151360	0.0020284318	0.5226651400
-0.0982996150	-0.0009999500	-0.0379013010	0.0020294193	0.5255841000
-0.1039880500	-0.0009999500	-0.0363332220	0.0020279608	0.5332994500
-0.1060860800	-0.0009999500	-0.0357454870	0.0020267384	0.5362584000
-0.1115164800	-0.0009999500	-0.0342014320	0.0020266014	0.5441045800
-0.1133852700	-0.0009999500	-0.0336616670	0.0020286672	0.5469102900
-0.1185780000	-0.0009999500	-0.0321397930	0.0020256697	0.5550498400
-0.1205173900	-0.0009999500	-0.0315622280	0.0020274449	0.5582156200
-0.1254079900	-0.0009999500	-0.0300847120	0.0020263461	0.5664510700
-0.1272645700	-0.0009999500	-0.0295150080	0.0020271809	0.5697007800
-0.1317973700	-0.0009999500	-0.0281043410	0.0020198083	0.5779584100
-0.1335835500	-0.0009999500	-0.0275398940	0.0020192494	0.5813465700
-0.1378060900	-0.0009999500	-0.0261869750	0.0020090027	0.5895555600
-0.1394453600	-0.0009999500	-0.0256540140	0.0020054350	0.5928637400
-0.1433683900	-0.0009999500	-0.0243613250	0.0019867747	0.6011292900
-0.1449370800	-0.0009999500	-0.0238370190	0.0019806573	0.6045500600
-0.1486311100	-0.0009999500	-0.0225860940	0.0019631467	0.6127993500
-0.1500830900	-0.0009999500	-0.0220875810	0.0019583318	0.6161628400
-0.1535481700	-0.0009999500	-0.0208824560	0.0019397690	0.6244697000
-0.1549412200	-0.0009999500	-0.0203912970	0.0019325306	0.6279196700
-0.1582147600	-0.0009999500	-0.0192223730	0.0019169588	0.6362346400
-0.1594999100	-0.0009999500	-0.0187573560	0.0019101593	0.6395982500
-0.1625772300	-0.0009999500	-0.0176299900	0.0018926758	0.6480157400
-0.1638063900	-0.0009999500	-0.0171738020	0.0018875353	0.6514964700
-0.1667162200	-0.0009999500	-0.0160806680	0.0018708422	0.6599085900
-0.1678456800	-0.0009999500	-0.0156509450	0.0018644574	0.6632693400
-0.1705808800	-0.0009999500	-0.0145977690	0.0018404523	0.6716614400
-0.1716636700	-0.0009999500	-0.0141755450	0.0018325607	0.6750885200
-0.1742517200	-0.0009999500	-0.0131543990	0.0018120499	0.6834638700
-0.1752532600	-0.0009999500	-0.0127543470	0.0018042033	0.6867948800
-0.1776962100	-0.0009999500	-0.0117671770	0.0017786222	0.6951873900
-0.1786657400	-0.0009999500	-0.0113706100	0.0017719574	0.6986224100
-0.1809913800	-0.0009999500	-0.0104084560	0.0017486323	0.7070061000
-0.1818943600	-0.0009999500	-0.0100304260	0.0017406542	0.7103533700
-0.1841060800	-0.0009999500	-0.0090938844	0.0017140895	0.7188001900
-0.1849733600	-0.0009999500	-0.0087222336	0.0017055920	0.7221939000
-0.1870835100	-0.0009999500	-0.0078076422	0.0016790607	0.7306113200
-0.1878662900	-0.0009999500	-0.0074643763	0.0016700711	0.7338123300
-0.1898510900	-0.0009999500	-0.0065842844	0.0016435331	0.7422181400
-0.1905839600	-0.0009999500	-0.0062555312	0.0016347847	0.7454221800
-0.1924798200	-0.0009999500	-0.0053958283	0.0016101239	0.7537973500
-0.1931284100	-0.0009999500	-0.0050984118	0.0016030225	0.7567293000
-0.1949339200	-0.0009999500	-0.0042616986	0.0015766294	0.7651230100
-0.1955875900	-0.0009999500	-0.0039553451	0.0015687692	0.7682281700
-0.1972551500	-0.0009999500	-0.0031657505	0.0015421874	0.7762990000
-0.1979094300	-0.0009999500	-0.0028524625	0.0015324663	0.7795158600
-0.1994823700	-0.0009999500	-0.0020914436	0.0015064659	0.7874037600
-0.2000832000	-0.0009999500	-0.0017975440	0.0014975361	0.7905038600
-0.2015459100	-0.0009999500	-0.0010747132	0.0014731674	0.7982116300
-0.2021324600	-0.0009999500	-0.0007817206	0.0014646477	0.8013624000