VARIABLES= iterations rms_res_mf1 rms_res_mf2 rms_res_mf3 rms_res_mf4 rms_res_mf5 rms_res_trb1 CL CD CDv CM
ZONE T = "USM3D-ME, MITAdapted_X0320K"
1  -999  -999  -999  -999  1.252463E-06  3.097283E-05  -6.145032E-03  2.513258E-01  2.513258E-01  1.116668E-03
2  -999  -999  -999  -999  1.042123E-06  2.703444E-05  5.896181E-01  5.351778E-01  2.508246E-01  -1.515725E-01
3  -999  -999  -999  -999  7.996056E-07  2.157340E-05  1.307349E+00  8.953722E-01  2.498282E-01  -3.320632E-01
4  -999  -999  -999  -999  6.096733E-07  1.533888E-05  1.789024E+00  1.148742E+00  2.478405E-01  -4.524666E-01
5  -999  -999  -999  -999  4.972278E-07  9.325139E-06  1.836045E+00  1.170856E+00  2.438790E-01  -4.657607E-01
6  -999  -999  -999  -999  4.083617E-07  2.462170E-06  1.741453E+00  1.110826E+00  2.361673E-01  -4.425628E-01
7  -999  -999  -999  -999  3.226848E-07  1.552464E-06  1.704946E+00  1.066107E+00  2.224610E-01  -4.348064E-01
8  -999  -999  -999  -999  2.573795E-07  1.131936E-06  1.664461E+00  9.865979E-01  1.998593E-01  -4.277679E-01
9  -999  -999  -999  -999  1.968149E-07  8.509708E-07  1.508149E+00  8.007036E-01  1.675033E-01  -3.835893E-01
10  -999  -999  -999  -999  1.030807E-07  7.072264E-07  1.135769E+00  4.768442E-01  1.297393E-01  -2.443649E-01
11  -999  -999  -999  -999  5.413752E-08  7.632947E-07  5.650795E-01  1.772402E-01  9.449835E-02  -4.194724E-02
12  -999  -999  -999  -999  3.260307E-08  8.947359E-07  2.555269E-01  6.777571E-02  6.719536E-02  2.938573E-02
13  -999  -999  -999  -999  2.747148E-08  1.199309E-06  2.854484E-01  6.486457E-02  4.780877E-02  7.831639E-03
14  -999  -999  -999  -999  1.644879E-08  1.197261E-06  2.980932E-01  6.603904E-02  4.483177E-02  3.965577E-03
15  -999  -999  -999  -999  1.947610E-08  1.312131E-06  3.100275E-01  6.653992E-02  4.071236E-02  1.196470E-03
16  -999  -999  -999  -999  1.577132E-08  1.486430E-06  3.063579E-01  6.206936E-02  3.591965E-02  1.718421E-03
17  -999  -999  -999  -999  9.765585E-09  1.536801E-06  3.047918E-01  6.098070E-02  3.513431E-02  1.988977E-03
18  -999  -999  -999  -999  8.647023E-09  1.578873E-06  3.012665E-01  5.877123E-02  3.379395E-02  2.471103E-03
19  -999  -999  -999  -999  9.120004E-09  1.577110E-06  2.950925E-01  5.545779E-02  3.177376E-02  3.055001E-03
20  -999  -999  -999  -999  7.981165E-09  1.587550E-06  2.939152E-01  5.490366E-02  3.145079E-02  3.140971E-03
21  -999  -999  -999  -999  6.699067E-09  1.581870E-06  2.914367E-01  5.369389E-02  3.076750E-02  3.333227E-03
22  -999  -999  -999  -999  9.423966E-09  1.578661E-06  2.866405E-01  5.195738E-02  2.972423E-02  3.769393E-03
23  -999  -999  -999  -999  6.140790E-09  1.498696E-06  2.858665E-01  5.165941E-02  2.954872E-02  3.750744E-03
24  -999  -999  -999  -999  6.975515E-09  1.469764E-06  2.840068E-01  5.098594E-02  2.922421E-02  3.853850E-03
25  -999  -999  -999  -999  7.824429E-09  1.393125E-06  2.805282E-01  5.001719E-02  2.856489E-02  4.132785E-03
26  -999  -999  -999  -999  6.461043E-09  1.384463E-06  2.799337E-01  4.988046E-02  2.846309E-02  4.140186E-03
27  -999  -999  -999  -999  7.715318E-09  1.369635E-06  2.788307E-01  4.963804E-02  2.827465E-02  4.155992E-03
28  -999  -999  -999  -999  6.439364E-09  1.329906E-06  2.765148E-01  4.910517E-02  2.781910E-02  4.275288E-03
29  -999  -999  -999  -999  8.881651E-09  1.306144E-06  2.729688E-01  4.853453E-02  2.712041E-02  4.418836E-03
30  -999  -999  -999  -999  7.118808E-09  1.311054E-06  2.723286E-01  4.839616E-02  2.702662E-02  4.392976E-03
31  -999  -999  -999  -999  4.671082E-09  1.325802E-06  2.707558E-01  4.795049E-02  2.676634E-02  4.525381E-03
32  -999  -999  -999  -999  5.927064E-09  1.379528E-06  2.679632E-01  4.738578E-02  2.631421E-02  4.789912E-03
33  -999  -999  -999  -999  5.936254E-09  1.381329E-06  2.678868E-01  4.736908E-02  2.629960E-02  4.792337E-03
34  -999  -999  -999  -999  4.788837E-09  1.396237E-06  2.674330E-01  4.729465E-02  2.623006E-02  4.778019E-03
35  -999  -999  -999  -999  5.658488E-09  1.431559E-06  2.666458E-01  4.711633E-02  2.609638E-02  4.798426E-03
36  -999  -999  -999  -999  5.065651E-09  1.493200E-06  2.647823E-01  4.666717E-02  2.574957E-02  4.949607E-03
37  -999  -999  -999  -999  7.639361E-09  1.617148E-06  2.621543E-01  4.615481E-02  2.521186E-02  5.056600E-03
38  -999  -999  -999  -999  5.993414E-09  1.639424E-06  2.616166E-01  4.597760E-02  2.513196E-02  5.073376E-03
39  -999  -999  -999  -999  3.925627E-09  1.684667E-06  2.601706E-01  4.553752E-02  2.490579E-02  5.267152E-03
40  -999  -999  -999  -999  3.090389E-09  1.695131E-06  2.598830E-01  4.545627E-02  2.486750E-02  5.296941E-03
41  -999  -999  -999  -999  3.314027E-09  1.717098E-06  2.593586E-01  4.529888E-02  2.479658E-02  5.342396E-03
42  -999  -999  -999  -999  4.856982E-09  1.763105E-06  2.585569E-01  4.518143E-02  2.466782E-02  5.404985E-03
43  -999  -999  -999  -999  3.375476E-09  1.768157E-06  2.583944E-01  4.514895E-02  2.462600E-02  5.418032E-03
44  -999  -999  -999  -999  3.143266E-09  1.783697E-06  2.580876E-01  4.507069E-02  2.455646E-02  5.415364E-03
45  -999  -999  -999  -999  4.153334E-09  1.818131E-06  2.575186E-01  4.492433E-02  2.444360E-02  5.454727E-03
46  -999  -999  -999  -999  3.767745E-09  1.869561E-06  2.562813E-01  4.463134E-02  2.417451E-02  5.553570E-03
47  -999  -999  -999  -999  5.722061E-09  1.981933E-06  2.547503E-01  4.433974E-02  2.375389E-02  5.536693E-03
48  -999  -999  -999  -999  5.066756E-09  2.142637E-06  2.521043E-01  4.357145E-02  2.298248E-02  5.651669E-03
49  -999  -999  -999  -999  6.437761E-09  2.277163E-06  2.487132E-01  4.242119E-02  2.166524E-02  5.644165E-03
50  -999  -999  -999  -999  3.264177E-09  2.202259E-06  2.478734E-01  4.197983E-02  2.136189E-02  5.728400E-03
51  -999  -999  -999  -999  3.292523E-09  2.320157E-06  2.466405E-01  4.145352E-02  2.081550E-02  5.659919E-03
52  -999  -999  -999  -999  2.876423E-09  2.350850E-06  2.463795E-01  4.136411E-02  2.071154E-02  5.674274E-03
53  -999  -999  -999  -999  2.239751E-09  2.419414E-06  2.456678E-01  4.112045E-02  2.049548E-02  5.731092E-03
54  -999  -999  -999  -999  3.160635E-09  2.599959E-06  2.447625E-01  4.083400E-02  2.013051E-02  5.688481E-03
55  -999  -999  -999  -999  3.084220E-09  2.981102E-06  2.428362E-01  4.018287E-02  1.939622E-02  5.839754E-03
56  -999  -999  -999  -999  1.604468E-09  3.052516E-06  2.422732E-01  3.997880E-02  1.926316E-02  5.899228E-03
57  -999  -999  -999  -999  1.919794E-09  3.255289E-06  2.415361E-01  3.972434E-02  1.899702E-02  5.921428E-03
58  -999  -999  -999  -999  1.515148E-09  3.296026E-06  2.413627E-01  3.966368E-02  1.895527E-02  5.938586E-03
59  -999  -999  -999  -999  1.840829E-09  3.389117E-06  2.410387E-01  3.959344E-02  1.886936E-02  5.973329E-03
60  -999  -999  -999  -999  1.645511E-09  3.579043E-06  2.403192E-01  3.934379E-02  1.862045E-02  6.051981E-03
61  -999  -999  -999  -999  1.279401E-09  3.618993E-06  2.402117E-01  3.930061E-02  1.858161E-02  6.042486E-03
62  -999  -999  -999  -999  1.464733E-09  3.705288E-06  2.399540E-01  3.922151E-02  1.850968E-02  6.074643E-03
63  -999  -999  -999  -999  1.282026E-09  3.884305E-06  2.393971E-01  3.902419E-02  1.831404E-02  6.138478E-03
64  -999  -999  -999  -999  1.015764E-09  3.922480E-06  2.392989E-01  3.899345E-02  1.828249E-02  6.139268E-03
65  -999  -999  -999  -999  1.148910E-09  4.002437E-06  2.391128E-01  3.893081E-02  1.822494E-02  6.153209E-03
66  -999  -999  -999  -999  1.737676E-09  4.172326E-06  2.387631E-01  3.886744E-02  1.811940E-02  6.184991E-03
67  -999  -999  -999  -999  1.594115E-09  4.534270E-06  2.380071E-01  3.858810E-02  1.782694E-02  6.263128E-03
68  -999  -999  -999  -999  1.224033E-09  4.612476E-06  2.378448E-01  3.852523E-02  1.778098E-02  6.288120E-03
69  -999  -999  -999  -999  1.394815E-09  4.777824E-06  2.375377E-01  3.844473E-02  1.769553E-02  6.330571E-03
70  -999  -999  -999  -999  1.193505E-09  5.126779E-06  2.368999E-01  3.821342E-02  1.746585E-02  6.416451E-03
71  -999  -999  -999  -999  1.721390E-09  5.862129E-06  2.359182E-01  3.788282E-02  1.709844E-02  6.543239E-03
72  -999  -999  -999  -999  1.350375E-09  6.009344E-06  2.356770E-01  3.783003E-02  1.704235E-02  6.582640E-03
73  -999  -999  -999  -999  9.399256E-10  6.320330E-06  2.351728E-01  3.761639E-02  1.686519E-02  6.661087E-03
74  -999  -999  -999  -999  1.265240E-09  6.927476E-06  2.343939E-01  3.734869E-02  1.658058E-02  6.757483E-03
75  -999  -999  -999  -999  1.019452E-09  7.045975E-06  2.342564E-01  3.730895E-02  1.653833E-02  6.777520E-03
76  -999  -999  -999  -999  1.227039E-09  7.279698E-06  2.339312E-01  3.722775E-02  1.644861E-02  6.827788E-03
77  -999  -999  -999  -999  1.083741E-09  7.729086E-06  2.333095E-01  3.697370E-02  1.619740E-02  6.912802E-03
78  -999  -999  -999  -999  1.237849E-09  8.102381E-06  2.329462E-01  3.685289E-02  1.605856E-02  6.973467E-03
79  -999  -999  -999  -999  1.528003E-09  8.707796E-06  2.319681E-01  3.651167E-02  1.568044E-02  7.130176E-03
80  -999  -999  -999  -999  9.298748E-10  8.700876E-06  2.319353E-01  3.650677E-02  1.567520E-02  7.135169E-03
81  -999  -999  -999  -999  7.056252E-10  8.720334E-06  2.318677E-01  3.648814E-02  1.566349E-02  7.144467E-03
82  -999  -999  -999  -999  6.104327E-10  8.767581E-06  2.317471E-01  3.642600E-02  1.563780E-02  7.162376E-03
83  -999  -999  -999  -999  6.652924E-10  8.859745E-06  2.315572E-01  3.634501E-02  1.558438E-02  7.192931E-03
84  -999  -999  -999  -999  6.381658E-10  9.024529E-06  2.312240E-01  3.620807E-02  1.543580E-02  7.243681E-03
85  -999  -999  -999  -999  9.505816E-10  9.307039E-06  2.306606E-01  3.600899E-02  1.520399E-02  7.312879E-03
86  -999  -999  -999  -999  7.799314E-10  9.349562E-06  2.305529E-01  3.598075E-02  1.517183E-02  7.330422E-03
87  -999  -999  -999  -999  9.332888E-10  9.419391E-06  2.303149E-01  3.591747E-02  1.510077E-02  7.367205E-03
88  -999  -999  -999  -999  8.248583E-10  9.555517E-06  2.298595E-01  3.571741E-02  1.489904E-02  7.427063E-03
89  -999  -999  -999  -999  9.020896E-10  9.632807E-06  2.290856E-01  3.542981E-02  1.458003E-02  7.540508E-03
90  -999  -999  -999  -999  7.774597E-10  9.635870E-06  2.289291E-01  3.536282E-02  1.451049E-02  7.559660E-03
91  -999  -999  -999  -999  6.317817E-10  9.704361E-06  2.286138E-01  3.522163E-02  1.437397E-02  7.604000E-03
92  -999  -999  -999  -999  5.104539E-10  9.714937E-06  2.285582E-01  3.519750E-02  1.435310E-02  7.607165E-03
93  -999  -999  -999  -999  5.628086E-10  9.734532E-06  2.284379E-01  3.516007E-02  1.431519E-02  7.624052E-03
94  -999  -999  -999  -999  5.235390E-10  9.763481E-06  2.281931E-01  3.506212E-02  1.421205E-02  7.659454E-03
95  -999  -999  -999  -999  4.409868E-10  9.768746E-06  2.281534E-01  3.504694E-02  1.419570E-02  7.660961E-03
96  -999  -999  -999  -999  4.839509E-10  9.777571E-06  2.280671E-01  3.501827E-02  1.416571E-02  7.670828E-03
97  -999  -999  -999  -999  4.506342E-10  9.784552E-06  2.278871E-01  3.494138E-02  1.408463E-02  7.693504E-03
98  -999  -999  -999  -999  5.975827E-10  9.817674E-06  2.275902E-01  3.482797E-02  1.394845E-02  7.723030E-03
99  -999  -999  -999  -999  4.961653E-10  9.811199E-06  2.275331E-01  3.480882E-02  1.392814E-02  7.730345E-03
100  -999  -999  -999  -999  5.737345E-10  9.804293E-06  2.274099E-01  3.477438E-02  1.388580E-02  7.745355E-03
101  -999  -999  -999  -999  5.244800E-10  9.768399E-06  2.271760E-01  3.466254E-02  1.376391E-02  7.771899E-03
102  -999  -999  -999  -999  5.851126E-10  9.569618E-06  2.267627E-01  3.448491E-02  1.356428E-02  7.816695E-03
103  -999  -999  -999  -999  5.056289E-10  9.555465E-06  2.266766E-01  3.444971E-02  1.352241E-02  7.829207E-03
104  -999  -999  -999  -999  4.382111E-10  9.514163E-06  2.265054E-01  3.436255E-02  1.343369E-02  7.848540E-03
105  -999  -999  -999  -999  5.772111E-10  9.494813E-06  2.262417E-01  3.424581E-02  1.329446E-02  7.869077E-03
106  -999  -999  -999  -999  7.407641E-10  9.025336E-06  2.257612E-01  3.404088E-02  1.304017E-02  7.921371E-03
107  -999  -999  -999  -999  4.103318E-10  8.956550E-06  2.256403E-01  3.394201E-02  1.295233E-02  7.934584E-03
108  -999  -999  -999  -999  4.634968E-10  8.888554E-06  2.254694E-01  3.385547E-02  1.285260E-02  7.943783E-03
109  -999  -999  -999  -999  5.815309E-10  8.505901E-06  2.251487E-01  3.371124E-02  1.267386E-02  7.971107E-03
110  -999  -999  -999  -999  7.929479E-10  7.854854E-06  2.246136E-01  3.339020E-02  1.229594E-02  8.011950E-03
111  -999  -999  -999  -999  4.288512E-10  7.730842E-06  2.244870E-01  3.335235E-02  1.226204E-02  8.024404E-03
112  -999  -999  -999  -999  4.518452E-10  7.407588E-06  2.242816E-01  3.325390E-02  1.214624E-02  8.033680E-03
113  -999  -999  -999  -999  7.206240E-10  6.920875E-06  2.239371E-01  3.304978E-02  1.189623E-02  8.056119E-03
114  -999  -999  -999  -999  1.004892E-09  7.888673E-06  2.238551E-01  3.299531E-02  1.184759E-02  8.060561E-03
115  -999  -999  -999  -999  7.803774E-10  6.708447E-06  2.237255E-01  3.293257E-02  1.177259E-02  8.064187E-03
116  -999  -999  -999  -999  2.997814E-10  6.452972E-06  2.236896E-01  3.291326E-02  1.175459E-02  8.067169E-03
117  -999  -999  -999  -999  2.921526E-10  6.353192E-06  2.236325E-01  3.288728E-02  1.172381E-02  8.069896E-03
118  -999  -999  -999  -999  3.330792E-10  6.153446E-06  2.235356E-01  3.283472E-02  1.165869E-02  8.070219E-03
119  -999  -999  -999  -999  4.263237E-10  5.704352E-06  2.233688E-01  3.274111E-02  1.154209E-02  8.074665E-03
120  -999  -999  -999  -999  2.556368E-10  5.611839E-06  2.233152E-01  3.270637E-02  1.150765E-02  8.080398E-03
121  -999  -999  -999  -999  2.767777E-10  5.476731E-06  2.232410E-01  3.266524E-02  1.146117E-02  8.082669E-03
122  -999  -999  -999  -999  3.490408E-10  5.218760E-06  2.231277E-01  3.259875E-02  1.137800E-02  8.081102E-03
123  -999  -999  -999  -999  2.500993E-10  5.154743E-06  2.230928E-01  3.257992E-02  1.135830E-02  8.084285E-03
124  -999  -999  -999  -999  2.503237E-10  5.017772E-06  2.230382E-01  3.254713E-02  1.132243E-02  8.086151E-03
125  -999  -999  -999  -999  2.118438E-10  4.988668E-06  2.230293E-01  3.254136E-02  1.131594E-02  8.084922E-03
126  -999  -999  -999  -999  2.239818E-10  4.953861E-06  2.230080E-01  3.253127E-02  1.130465E-02  8.085280E-03
127  -999  -999  -999  -999  2.180155E-10  4.848674E-06  2.229684E-01  3.250527E-02  1.127464E-02  8.085847E-03
128  -999  -999  -999  -999  2.729549E-10  4.708465E-06  2.229043E-01  3.246758E-02  1.122531E-02  8.083270E-03
129  -999  -999  -999  -999  2.299193E-10  4.668422E-06  2.228877E-01  3.245962E-02  1.121759E-02  8.084845E-03
130  -999  -999  -999  -999  2.019193E-10  4.579304E-06  2.228533E-01  3.243803E-02  1.119468E-02  8.086205E-03
131  -999  -999  -999  -999  2.340421E-10  4.446231E-06  2.227996E-01  3.240678E-02  1.115559E-02  8.085725E-03
132  -999  -999  -999  -999  2.779639E-10  4.164266E-06  2.227099E-01  3.234835E-02  1.108337E-02  8.083406E-03
133  -999  -999  -999  -999  3.890353E-10  3.732266E-06  2.225590E-01  3.223112E-02  1.093871E-02  8.081380E-03
134  -999  -999  -999  -999  2.366407E-09  3.098587E-06  2.223322E-01  3.204570E-02  1.071631E-02  8.070925E-03
135  -999  -999  -999  -999  2.444661E-10  2.941825E-06  2.222923E-01  3.199464E-02  1.066609E-02  8.061179E-03
136  -999  -999  -999  -999  2.658079E-10  2.688725E-06  2.222050E-01  3.193166E-02  1.058961E-02  8.054952E-03
137  -999  -999  -999  -999  2.680957E-10  2.673833E-06  2.222010E-01  3.192813E-02  1.058518E-02  8.054240E-03
138  -999  -999  -999  -999  1.757123E-10  2.626286E-06  2.221780E-01  3.191630E-02  1.057399E-02  8.052835E-03
139  -999  -999  -999  -999  1.694895E-10  2.522888E-06  2.221461E-01  3.189200E-02  1.054627E-02  8.046977E-03
140  -999  -999  -999  -999  2.026770E-10  2.340661E-06  2.220953E-01  3.184545E-02  1.048913E-02  8.038016E-03
141  -999  -999  -999  -999  6.810562E-10  2.055683E-06  2.220111E-01  3.176674E-02  1.039140E-02  8.023838E-03
142  -999  -999  -999  -999  1.501379E-10  1.991845E-06  2.219866E-01  3.174447E-02  1.037154E-02  8.021418E-03
143  -999  -999  -999  -999  1.586496E-10  1.916754E-06  2.219581E-01  3.171479E-02  1.033579E-02  8.011926E-03
144  -999  -999  -999  -999  1.330295E-10  1.908956E-06  2.219472E-01  3.170706E-02  1.032808E-02  8.011845E-03
145  -999  -999  -999  -999  1.151662E-10  1.873828E-06  2.219455E-01  3.170544E-02  1.032632E-02  8.011542E-03
146  -999  -999  -999  -999  1.136290E-10  1.866549E-06  2.219412E-01  3.170230E-02  1.032363E-02  8.010846E-03
147  -999  -999  -999  -999  1.114726E-10  1.846613E-06  2.219342E-01  3.169614E-02  1.031771E-02  8.010133E-03
148  -999  -999  -999  -999  1.188676E-10  1.813470E-06  2.219243E-01  3.168768E-02  1.030676E-02  8.007822E-03
149  -999  -999  -999  -999  1.298066E-10  1.749601E-06  2.219085E-01  3.167143E-02  1.028569E-02  8.001554E-03
150  -999  -999  -999  -999  1.339071E-10  1.741611E-06  2.219059E-01  3.166874E-02  1.028247E-02  8.000721E-03
151  -999  -999  -999  -999  1.106879E-10  1.729168E-06  2.219008E-01  3.166394E-02  1.027794E-02  8.000428E-03
152  -999  -999  -999  -999  1.121788E-10  1.706002E-06  2.218911E-01  3.165628E-02  1.026926E-02  7.999195E-03
153  -999  -999  -999  -999  1.336294E-10  1.682887E-06  2.218795E-01  3.164419E-02  1.025328E-02  7.994970E-03
154  -999  -999  -999  -999  1.100298E-10  1.654326E-06  2.218759E-01  3.164107E-02  1.025028E-02  7.994289E-03
155  -999  -999  -999  -999  1.080460E-10  1.633292E-06  2.218688E-01  3.163432E-02  1.024346E-02  7.993463E-03
156  -999  -999  -999  -999  1.146846E-10  1.598326E-06  2.218576E-01  3.162384E-02  1.023080E-02  7.991053E-03
157  -999  -999  -999  -999  1.302393E-10  1.537178E-06  2.218467E-01  3.160537E-02  1.020687E-02  7.983175E-03
158  -999  -999  -999  -999  1.066706E-10  1.518936E-06  2.218396E-01  3.159922E-02  1.020119E-02  7.983118E-03
159  -999  -999  -999  -999  1.075112E-10  1.491047E-06  2.218298E-01  3.159004E-02  1.019122E-02  7.981328E-03
160  -999  -999  -999  -999  9.795589E-11  1.486923E-06  2.218284E-01  3.158851E-02  1.018949E-02  7.980770E-03
161  -999  -999  -999  -999  9.451585E-11  1.473979E-06  2.218252E-01  3.158439E-02  1.018531E-02  7.979734E-03
162  -999  -999  -999  -999  9.812543E-11  1.453256E-06  2.218199E-01  3.157803E-02  1.017765E-02  7.977742E-03
163  -999  -999  -999  -999  1.061152E-10  1.416749E-06  2.218115E-01  3.156701E-02  1.016335E-02  7.973351E-03
164  -999  -999  -999  -999  1.448029E-10  1.345842E-06  2.217977E-01  3.154453E-02  1.013558E-02  7.965348E-03
165  -999  -999  -999  -999  9.758701E-11  1.329215E-06  2.217921E-01  3.153792E-02  1.012924E-02  7.964860E-03
166  -999  -999  -999  -999  1.020795E-10  1.307869E-06  2.217840E-01  3.152859E-02  1.011856E-02  7.962355E-03
167  -999  -999  -999  -999  1.206432E-10  1.642534E-06  2.217759E-01  3.151156E-02  1.009786E-02  7.955387E-03
168  -999  -999  -999  -999  1.111120E-10  1.275600E-06  2.217712E-01  3.150736E-02  1.009375E-02  7.954876E-03
169  -999  -999  -999  -999  1.041665E-10  1.255469E-06  2.217657E-01  3.150007E-02  1.008536E-02  7.952740E-03
170  -999  -999  -999  -999  9.591208E-11  1.223929E-06  2.217652E-01  3.149853E-02  1.008360E-02  7.952252E-03
171  -999  -999  -999  -999  8.459689E-11  1.217454E-06  2.217622E-01  3.149519E-02  1.008056E-02  7.951541E-03
172  -999  -999  -999  -999  8.747309E-11  1.203634E-06  2.217595E-01  3.149015E-02  1.007411E-02  7.949316E-03
173  -999  -999  -999  -999  1.197648E-10  1.178439E-06  2.217533E-01  3.147982E-02  1.006149E-02  7.945487E-03
174  -999  -999  -999  -999  8.334487E-11  1.163079E-06  2.217509E-01  3.147738E-02  1.005908E-02  7.944871E-03
175  -999  -999  -999  -999  8.369472E-11  1.148751E-06  2.217484E-01  3.147288E-02  1.005410E-02  7.943376E-03
176  -999  -999  -999  -999  8.972788E-11  1.125381E-06  2.217432E-01  3.146520E-02  1.004456E-02  7.941117E-03
177  -999  -999  -999  -999  8.298739E-11  1.122064E-06  2.217433E-01  3.146413E-02  1.004299E-02  7.939906E-03
178  -999  -999  -999  -999  7.902316E-11  1.108459E-06  2.217414E-01  3.145990E-02  1.003877E-02  7.938663E-03
179  -999  -999  -999  -999  8.296635E-11  1.089929E-06  2.217374E-01  3.145358E-02  1.003125E-02  7.936560E-03
180  -999  -999  -999  -999  8.679769E-11  1.052899E-06  2.217331E-01  3.144199E-02  1.001691E-02  7.931315E-03
181  -999  -999  -999  -999  1.342462E-10  1.114505E-06  2.217276E-01  3.141900E-02  9.988927E-03  7.922283E-03
182  -999  -999  -999  -999  9.563682E-11  1.006781E-06  2.217209E-01  3.141302E-02  9.983252E-03  7.921858E-03
183  -999  -999  -999  -999  1.129850E-10  9.651397E-07  2.217158E-01  3.140378E-02  9.972813E-03  7.918461E-03
184  -999  -999  -999  -999  1.584233E-10  9.159095E-07  2.217106E-01  3.138656E-02  9.952512E-03  7.910719E-03
185  -999  -999  -999  -999  7.559587E-11  8.981417E-07  2.217073E-01  3.138251E-02  9.948548E-03  7.910453E-03
186  -999  -999  -999  -999  7.613977E-11  8.786151E-07  2.217030E-01  3.137590E-02  9.940855E-03  7.908299E-03
187  -999  -999  -999  -999  6.992902E-11  8.770949E-07  2.217027E-01  3.137493E-02  9.939572E-03  7.907500E-03
188  -999  -999  -999  -999  6.654210E-11  8.665175E-07  2.217016E-01  3.137151E-02  9.936186E-03  7.906339E-03
189  -999  -999  -999  -999  6.964466E-11  8.519612E-07  2.216991E-01  3.136647E-02  9.930175E-03  7.904406E-03
190  -999  -999  -999  -999  7.549753E-11  8.516476E-07  2.216974E-01  3.135727E-02  9.918731E-03  7.899733E-03
191  -999  -999  -999  -999  1.451154E-10  7.748285E-07  2.216939E-01  3.133804E-02  9.896093E-03  7.891754E-03
192  -999  -999  -999  -999  6.650005E-11  7.616155E-07  2.216881E-01  3.133333E-02  9.891620E-03  7.891671E-03
193  -999  -999  -999  -999  7.553368E-11  7.732814E-07  2.216844E-01  3.132594E-02  9.883333E-03  7.888695E-03
194  -999  -999  -999  -999  1.452567E-10  7.074950E-07  2.216827E-01  3.131237E-02  9.867187E-03  7.881959E-03
195  -999  -999  -999  -999  6.117853E-11  6.959415E-07  2.216803E-01  3.130904E-02  9.863917E-03  7.881711E-03
196  -999  -999  -999  -999  5.934294E-11  6.810768E-07  2.216764E-01  3.130321E-02  9.857733E-03  7.880090E-03
197  -999  -999  -999  -999  7.082539E-11  6.541903E-07  2.216742E-01  3.129342E-02  9.845777E-03  7.875382E-03
198  -999  -999  -999  -999  5.528233E-11  6.478104E-07  2.216729E-01  3.129066E-02  9.843100E-03  7.874763E-03
199  -999  -999  -999  -999  5.684915E-11  6.375875E-07  2.216710E-01  3.128654E-02  9.838479E-03  7.873219E-03
200  -999  -999  -999  -999  6.137796E-11  7.568023E-07  2.216703E-01  3.127930E-02  9.829706E-03  7.869510E-03
201  -999  -999  -999  -999  6.778863E-07  5.923636E-07  2.214075E-01  3.130575E-02  9.812990E-03  7.832898E-03
202  -999  -999  -999  -999  6.404822E-07  1.326791E-06  2.214126E-01  3.130539E-02  9.812924E-03  7.833341E-03
203  -999  -999  -999  -999  5.753470E-07  3.380667E-06  2.214240E-01  3.130449E-02  9.812794E-03  7.834272E-03
204  -999  -999  -999  -999  5.615420E-07  3.844199E-06  2.214266E-01  3.130429E-02  9.812764E-03  7.834482E-03
205  -999  -999  -999  -999  5.331675E-07  4.825474E-06  2.214324E-01  3.130379E-02  9.812701E-03  7.834947E-03
206  -999  -999  -999  -999  4.921184E-07  6.318314E-06  2.214426E-01  3.130283E-02  9.812596E-03  7.835736E-03
207  -999  -999  -999  -999  4.255229E-07  8.920846E-06  2.214635E-01  3.130027E-02  9.812388E-03  7.837357E-03
208  -999  -999  -999  -999  3.340147E-07  1.299899E-05  2.215021E-01  3.129266E-02  9.811973E-03  7.840547E-03
209  -999  -999  -999  -999  2.354959E-07  1.834481E-05  2.215494E-01  3.127066E-02  9.811147E-03  7.845796E-03
210  -999  -999  -999  -999  1.552723E-07  2.381093E-05  2.215355E-01  3.121786E-02  9.809506E-03  7.851120E-03
211  -999  -999  -999  -999  1.021107E-07  2.808135E-05  2.213281E-01  3.110007E-02  9.806280E-03  7.856153E-03
212  -999  -999  -999  -999  7.113158E-08  3.050318E-05  2.208504E-01  3.080613E-02  9.800079E-03  7.901613E-03
213  -999  -999  -999  -999  5.681522E-08  3.100799E-05  2.201134E-01  3.011460E-02  9.788598E-03  8.102084E-03
214  -999  -999  -999  -999  4.866068E-08  2.905017E-05  2.186631E-01  2.870900E-02  9.768659E-03  8.773383E-03
215  -999  -999  -999  -999  3.698555E-08  2.556587E-05  2.151356E-01  2.616328E-02  9.737037E-03  1.068392E-02
216  -999  -999  -999  -999  2.664780E-08  2.332401E-05  2.102576E-01  2.235560E-02  9.693866E-03  1.340025E-02
217  -999  -999  -999  -999  1.969634E-08  2.343505E-05  2.066479E-01  1.840019E-02  9.648822E-03  1.393512E-02
218  -999  -999  -999  -999  1.378929E-08  2.856810E-05  2.023962E-01  1.659350E-02  9.610287E-03  1.348973E-02
219  -999  -999  -999  -999  1.353308E-08  4.001003E-05  2.029727E-01  1.938951E-02  9.583193E-03  1.283733E-02
220  -999  -999  -999  -999  5.602141E-09  4.290648E-05  2.035223E-01  2.006337E-02  9.578830E-03  1.268597E-02
221  -999  -999  -999  -999  4.893434E-09  4.308651E-05  2.036414E-01  2.019390E-02  9.578021E-03  1.265672E-02
222  -999  -999  -999  -999  7.549551E-09  4.417671E-05  2.039228E-01  2.046606E-02  9.576511E-03  1.259474E-02
223  -999  -999  -999  -999  8.251356E-09  4.624567E-05  2.045429E-01  2.094903E-02  9.573886E-03  1.249487E-02
224  -999  -999  -999  -999  6.700694E-09  4.965364E-05  2.053416E-01  2.144550E-02  9.569870E-03  1.250629E-02
225  -999  -999  -999  -999  8.440481E-09  5.224902E-05  2.053282E-01  2.124445E-02  9.564764E-03  1.279700E-02
226  -999  -999  -999  -999  5.754089E-09  5.290999E-05  2.054166E-01  2.123393E-02  9.564169E-03  1.283074E-02
227  -999  -999  -999  -999  4.271815E-09  5.400917E-05  2.054719E-01  2.117740E-02  9.563198E-03  1.290887E-02
228  -999  -999  -999  -999  6.677844E-09  5.431812E-05  2.053176E-01  2.089748E-02  9.562874E-03  1.301832E-02
229  -999  -999  -999  -999  8.662012E-09  5.752106E-05  2.054485E-01  2.057183E-02  9.567893E-03  1.305278E-02
230  -999  -999  -999  -999  6.054500E-09  5.177184E-05  2.057167E-01  2.061393E-02  9.569849E-03  1.303014E-02
231  -999  -999  -999  -999  8.758275E-09  4.939307E-05  2.057540E-01  2.047025E-02  9.574121E-03  1.304409E-02
232  -999  -999  -999  -999  8.715251E-09  4.535844E-05  2.057593E-01  2.023916E-02  9.582553E-03  1.307258E-02
233  -999  -999  -999  -999  9.270574E-09  4.335868E-05  2.058545E-01  2.024327E-02  9.585887E-03  1.306327E-02
234  -999  -999  -999  -999  3.014237E-09  4.292550E-05  2.058599E-01  2.023916E-02  9.586115E-03  1.306282E-02
235  -999  -999  -999  -999  2.999037E-09  4.278439E-05  2.058728E-01  2.023412E-02  9.586558E-03  1.306215E-02
236  -999  -999  -999  -999  4.468679E-09  4.254404E-05  2.058910E-01  2.022700E-02  9.587413E-03  1.306330E-02
237  -999  -999  -999  -999  7.136866E-09  4.205255E-05  2.059181E-01  2.021800E-02  9.589049E-03  1.306581E-02
238  -999  -999  -999  -999  2.647913E-09  4.068000E-05  2.059892E-01  2.021309E-02  9.592515E-03  1.305670E-02
239  -999  -999  -999  -999  4.617803E-09  3.760474E-05  2.062014E-01  2.025531E-02  9.599057E-03  1.302635E-02
240  -999  -999  -999  -999  8.379705E-09  3.123433E-05  2.066074E-01  2.031869E-02  9.611937E-03  1.299261E-02
241  -999  -999  -999  -999  1.362139E-08  2.647625E-05  2.073723E-01  2.041181E-02  9.643224E-03  1.296908E-02
242  -999  -999  -999  -999  7.629138E-09  2.232762E-05  2.075412E-01  2.041056E-02  9.650216E-03  1.297103E-02
243  -999  -999  -999  -999  3.058533E-09  1.999214E-05  2.075678E-01  2.041459E-02  9.651734E-03  1.297119E-02
244  -999  -999  -999  -999  3.752862E-09  1.931278E-05  2.076266E-01  2.042576E-02  9.654652E-03  1.297317E-02
245  -999  -999  -999  -999  4.061756E-09  1.839179E-05  2.077341E-01  2.042630E-02  9.660296E-03  1.297414E-02
246  -999  -999  -999  -999  5.300126E-09  1.678207E-05  2.078710E-01  2.037725E-02  9.671037E-03  1.298725E-02
247  -999  -999  -999  -999  4.284591E-09  1.630758E-05  2.079310E-01  2.038116E-02  9.673100E-03  1.298714E-02
248  -999  -999  -999  -999  2.664229E-09  1.569061E-05  2.080013E-01  2.038347E-02  9.677683E-03  1.298879E-02
249  -999  -999  -999  -999  3.786253E-09  1.441614E-05  2.080975E-01  2.035227E-02  9.686539E-03  1.300026E-02
250  -999  -999  -999  -999  6.111051E-09  1.198371E-05  2.083306E-01  2.033436E-02  9.703897E-03  1.300700E-02
251  -999  -999  -999  -999  4.064446E-09  1.160540E-05  2.083772E-01  2.034542E-02  9.707246E-03  1.300994E-02
252  -999  -999  -999  -999  1.947879E-09  1.141581E-05  2.083812E-01  2.034661E-02  9.707988E-03  1.301029E-02
253  -999  -999  -999  -999  3.098233E-09  1.125711E-05  2.083900E-01  2.034615E-02  9.709405E-03  1.301277E-02
254  -999  -999  -999  -999  1.294800E-09  1.094091E-05  2.084189E-01  2.034828E-02  9.712442E-03  1.301560E-02
255  -999  -999  -999  -999  2.075215E-09  1.034873E-05  2.084837E-01  2.034722E-02  9.718184E-03  1.301880E-02
256  -999  -999  -999  -999  3.529329E-09  9.312393E-06  2.085864E-01  2.033260E-02  9.729085E-03  1.303113E-02
257  -999  -999  -999  -999  4.764714E-09  8.010604E-06  2.088762E-01  2.035718E-02  9.751283E-03  1.303498E-02
258  -999  -999  -999  -999  2.447362E-09  7.895546E-06  2.089074E-01  2.036171E-02  9.755673E-03  1.304093E-02
259  -999  -999  -999  -999  1.451369E-09  7.841130E-06  2.089126E-01  2.036176E-02  9.756601E-03  1.304187E-02
260  -999  -999  -999  -999  2.405632E-09  7.820813E-06  2.089281E-01  2.036273E-02  9.758469E-03  1.304505E-02
261  -999  -999  -999  -999  1.078884E-09  7.787794E-06  2.089698E-01  2.036845E-02  9.762359E-03  1.304652E-02
262  -999  -999  -999  -999  1.760370E-09  7.763874E-06  2.090470E-01  2.036185E-02  9.769418E-03  1.305012E-02
263  -999  -999  -999  -999  2.189145E-09  7.863250E-06  2.091991E-01  2.036368E-02  9.783233E-03  1.305458E-02
264  -999  -999  -999  -999  7.017966E-10  7.753293E-06  2.092032E-01  2.036361E-02  9.783503E-03  1.305500E-02
265  -999  -999  -999  -999  7.590759E-10  7.756000E-06  2.092129E-01  2.036441E-02  9.784039E-03  1.305516E-02
266  -999  -999  -999  -999  1.244767E-09  7.764131E-06  2.092296E-01  2.036670E-02  9.785083E-03  1.305508E-02
267  -999  -999  -999  -999  2.157094E-09  7.784773E-06  2.092601E-01  2.036996E-02  9.787085E-03  1.305558E-02