VARIABLES= iterations rms_res_mf1 rms_res_mf2 rms_res_mf3 rms_res_mf4 rms_res_mf5 rms_res_trb1 CL CD CDv CM
ZONE T = "USM3D-ME, MITAdapted_X0640K"
1  -999  -999  -999  -999  5.974343E-07  1.516588E-05  -4.973442E-03  2.202322E-01  2.202322E-01  6.656880E-04
2  -999  -999  -999  -999  5.029653E-07  1.343281E-05  5.751728E-01  4.929611E-01  2.198526E-01  -1.449061E-01
3  -999  -999  -999  -999  3.993640E-07  1.094205E-05  1.284332E+00  8.454470E-01  2.190939E-01  -3.210339E-01
4  -999  -999  -999  -999  3.169648E-07  7.965199E-06  1.777298E+00  1.106954E+00  2.175718E-01  -4.462059E-01
5  -999  -999  -999  -999  2.648811E-07  4.896515E-06  1.840237E+00  1.143624E+00  2.145329E-01  -4.672308E-01
6  -999  -999  -999  -999  2.277395E-07  1.221687E-06  1.748029E+00  1.088847E+00  2.086207E-01  -4.449717E-01
7  -999  -999  -999  -999  1.878571E-07  7.836982E-07  1.712132E+00  1.050829E+00  1.980217E-01  -4.358934E-01
8  -999  -999  -999  -999  1.491861E-07  5.852441E-07  1.684404E+00  9.899559E-01  1.803266E-01  -4.302282E-01
9  -999  -999  -999  -999  1.190215E-07  4.615297E-07  1.558335E+00  8.326291E-01  1.544001E-01  -3.927823E-01
10  -999  -999  -999  -999  7.231059E-08  4.039580E-07  1.213543E+00  5.239881E-01  1.228352E-01  -2.664190E-01
11  -999  -999  -999  -999  3.521875E-08  4.365630E-07  6.504162E-01  2.067526E-01  9.188946E-02  -6.676800E-02
12  -999  -999  -999  -999  2.072604E-08  4.957169E-07  2.727237E-01  6.947397E-02  6.641649E-02  2.788306E-02
13  -999  -999  -999  -999  1.541628E-08  6.239001E-07  2.772783E-01  6.019694E-02  4.781808E-02  1.071497E-02
14  -999  -999  -999  -999  1.004970E-08  6.376468E-07  2.893834E-01  6.163030E-02  4.497095E-02  6.498205E-03
15  -999  -999  -999  -999  1.217085E-08  7.060987E-07  3.076674E-01  6.471646E-02  4.101666E-02  1.860038E-03
16  -999  -999  -999  -999  9.536245E-09  8.256421E-07  3.093446E-01  6.294346E-02  3.636564E-02  1.391172E-03
17  -999  -999  -999  -999  8.005926E-09  7.263988E-07  3.039847E-01  5.992812E-02  3.420913E-02  2.053427E-03
18  -999  -999  -999  -999  4.973486E-09  7.489041E-07  3.028799E-01  5.925520E-02  3.361421E-02  2.198179E-03
19  -999  -999  -999  -999  4.353751E-09  8.109180E-07  3.002387E-01  5.760631E-02  3.255116E-02  2.563250E-03
20  -999  -999  -999  -999  4.567997E-09  8.882201E-07  2.953733E-01  5.495511E-02  3.099515E-02  3.060267E-03
21  -999  -999  -999  -999  6.586347E-09  9.526814E-07  2.867953E-01  5.184496E-02  2.919514E-02  3.774635E-03
22  -999  -999  -999  -999  4.098925E-09  9.509338E-07  2.849209E-01  5.110889E-02  2.884727E-02  3.891277E-03
23  -999  -999  -999  -999  4.558395E-09  9.917998E-07  2.813377E-01  4.983066E-02  2.818070E-02  4.209806E-03
24  -999  -999  -999  -999  2.876887E-09  9.613040E-07  2.807081E-01  4.960072E-02  2.805405E-02  4.219795E-03
25  -999  -999  -999  -999  3.708589E-09  9.663042E-07  2.793388E-01  4.915679E-02  2.785164E-02  4.295304E-03
26  -999  -999  -999  -999  3.508576E-09  9.573232E-07  2.768570E-01  4.847398E-02  2.740776E-02  4.470128E-03
27  -999  -999  -999  -999  3.680007E-09  9.536874E-07  2.764286E-01  4.840648E-02  2.733343E-02  4.484199E-03
28  -999  -999  -999  -999  5.206443E-09  9.467179E-07  2.728079E-01  4.782835E-02  2.671655E-02  4.608428E-03
29  -999  -999  -999  -999  4.135088E-09  9.499752E-07  2.721245E-01  4.767516E-02  2.663567E-02  4.588992E-03
30  -999  -999  -999  -999  2.749684E-09  9.575802E-07  2.704518E-01  4.722156E-02  2.640559E-02  4.754252E-03
31  -999  -999  -999  -999  3.486368E-09  9.859952E-07  2.676752E-01  4.670767E-02  2.600369E-02  5.004048E-03
32  -999  -999  -999  -999  3.962057E-09  1.061369E-06  2.639500E-01  4.595743E-02  2.534999E-02  5.083548E-03
33  -999  -999  -999  -999  3.451867E-09  1.077136E-06  2.633422E-01  4.578006E-02  2.523039E-02  5.134394E-03
34  -999  -999  -999  -999  2.630109E-09  1.106865E-06  2.616649E-01  4.533610E-02  2.493533E-02  5.286304E-03
35  -999  -999  -999  -999  2.029774E-09  1.113561E-06  2.613598E-01  4.525480E-02  2.488531E-02  5.275354E-03
36  -999  -999  -999  -999  2.208941E-09  1.130269E-06  2.607653E-01  4.506902E-02  2.479323E-02  5.313389E-03
37  -999  -999  -999  -999  1.902317E-09  1.154122E-06  2.596689E-01  4.475025E-02  2.456986E-02  5.374409E-03
38  -999  -999  -999  -999  2.952430E-09  1.214973E-06  2.579601E-01  4.440149E-02  2.420222E-02  5.458961E-03
39  -999  -999  -999  -999  2.312452E-09  1.223184E-06  2.577818E-01  4.435462E-02  2.414236E-02  5.362380E-03
40  -999  -999  -999  -999  1.598259E-09  1.246742E-06  2.570554E-01  4.409161E-02  2.398374E-02  5.392298E-03
41  -999  -999  -999  -999  2.164794E-09  1.310029E-06  2.557715E-01  4.378713E-02  2.370281E-02  5.461953E-03
42  -999  -999  -999  -999  1.705028E-09  1.322281E-06  2.555908E-01  4.375592E-02  2.365614E-02  5.417849E-03
43  -999  -999  -999  -999  2.053913E-09  1.355510E-06  2.552500E-01  4.366828E-02  2.356456E-02  5.402912E-03
44  -999  -999  -999  -999  1.796910E-09  1.409773E-06  2.543718E-01  4.342311E-02  2.332823E-02  5.424156E-03
45  -999  -999  -999  -999  1.910450E-09  1.529639E-06  2.529542E-01  4.303534E-02  2.290942E-02  5.356108E-03
46  -999  -999  -999  -999  1.635258E-09  1.556191E-06  2.527479E-01  4.294386E-02  2.283450E-02  5.350259E-03
47  -999  -999  -999  -999  1.302831E-09  1.602841E-06  2.521036E-01  4.276057E-02  2.266486E-02  5.386074E-03
48  -999  -999  -999  -999  1.868588E-09  1.691367E-06  2.510725E-01  4.252005E-02  2.236549E-02  5.396165E-03
49  -999  -999  -999  -999  1.432676E-09  1.707901E-06  2.509132E-01  4.247028E-02  2.231466E-02  5.347989E-03
50  -999  -999  -999  -999  1.749508E-09  1.746111E-06  2.505758E-01  4.238246E-02  2.221119E-02  5.355797E-03
51  -999  -999  -999  -999  1.561395E-09  1.796261E-06  2.497166E-01  4.209865E-02  2.193649E-02  5.409533E-03
52  -999  -999  -999  -999  1.698507E-09  2.178235E-06  2.483963E-01  4.162502E-02  2.142756E-02  5.387148E-03
53  -999  -999  -999  -999  1.388817E-09  1.906066E-06  2.481735E-01  4.153403E-02  2.133606E-02  5.394866E-03
54  -999  -999  -999  -999  1.153290E-09  1.921992E-06  2.474862E-01  4.132383E-02  2.113662E-02  5.461234E-03
55  -999  -999  -999  -999  1.635406E-09  2.002102E-06  2.465394E-01  4.104087E-02  2.078643E-02  5.453350E-03
56  -999  -999  -999  -999  1.226383E-09  2.016144E-06  2.463397E-01  4.095391E-02  2.072294E-02  5.474222E-03
57  -999  -999  -999  -999  8.661768E-10  2.052134E-06  2.458116E-01  4.074026E-02  2.054983E-02  5.539587E-03
58  -999  -999  -999  -999  6.813349E-10  2.060013E-06  2.457111E-01  4.070506E-02  2.052029E-02  5.543207E-03
59  -999  -999  -999  -999  7.260860E-10  2.077732E-06  2.455085E-01  4.062998E-02  2.046512E-02  5.556256E-03
60  -999  -999  -999  -999  1.042066E-09  2.116993E-06  2.451977E-01  4.055867E-02  2.036435E-02  5.571042E-03
61  -999  -999  -999  -999  7.576195E-10  2.120801E-06  2.451382E-01  4.053552E-02  2.033245E-02  5.574241E-03
62  -999  -999  -999  -999  7.164442E-10  2.135215E-06  2.450184E-01  4.048433E-02  2.027951E-02  5.575677E-03
63  -999  -999  -999  -999  9.141337E-10  2.168321E-06  2.447529E-01  4.039574E-02  2.019220E-02  5.598062E-03
64  -999  -999  -999  -999  8.819897E-10  2.233210E-06  2.441802E-01  4.018929E-02  1.998319E-02  5.650455E-03
65  -999  -999  -999  -999  1.331331E-09  2.389046E-06  2.432983E-01  3.990028E-02  1.963312E-02  5.683596E-03
66  -999  -999  -999  -999  1.001225E-09  2.418475E-06  2.431310E-01  3.982544E-02  1.957125E-02  5.706166E-03
67  -999  -999  -999  -999  1.191338E-09  2.488841E-06  2.427238E-01  3.971763E-02  1.944860E-02  5.751663E-03
68  -999  -999  -999  -999  1.079244E-09  2.985189E-06  2.419399E-01  3.940621E-02  1.913503E-02  5.832613E-03
69  -999  -999  -999  -999  7.980875E-10  2.666740E-06  2.417835E-01  3.933870E-02  1.908334E-02  5.839465E-03
70  -999  -999  -999  -999  9.005423E-10  2.713727E-06  2.414807E-01  3.923680E-02  1.898603E-02  5.878627E-03
71  -999  -999  -999  -999  8.373096E-10  2.838140E-06  2.408330E-01  3.899140E-02  1.874320E-02  5.963515E-03
72  -999  -999  -999  -999  6.321193E-10  2.865672E-06  2.407298E-01  3.895074E-02  1.870165E-02  5.959091E-03
73  -999  -999  -999  -999  7.096393E-10  2.924317E-06  2.404947E-01  3.886787E-02  1.862568E-02  5.987031E-03
74  -999  -999  -999  -999  6.647470E-10  3.043939E-06  2.399945E-01  3.867694E-02  1.843805E-02  6.049145E-03
75  -999  -999  -999  -999  9.777267E-10  3.316008E-06  2.391639E-01  3.839984E-02  1.812464E-02  6.124910E-03
76  -999  -999  -999  -999  9.784103E-10  3.433491E-06  2.388284E-01  3.827377E-02  1.798908E-02  6.172243E-03
77  -999  -999  -999  -999  7.449953E-10  3.476882E-06  2.386791E-01  3.820832E-02  1.793064E-02  6.192371E-03
78  -999  -999  -999  -999  8.678936E-10  3.605604E-06  2.383167E-01  3.810467E-02  1.782378E-02  6.243036E-03
79  -999  -999  -999  -999  7.897676E-10  3.860411E-06  2.376413E-01  3.783842E-02  1.755996E-02  6.330577E-03
80  -999  -999  -999  -999  5.922882E-10  3.916487E-06  2.375120E-01  3.778258E-02  1.751531E-02  6.340083E-03
81  -999  -999  -999  -999  6.731555E-10  4.029713E-06  2.372446E-01  3.769725E-02  1.743292E-02  6.378514E-03
82  -999  -999  -999  -999  6.238818E-10  4.248783E-06  2.367065E-01  3.749132E-02  1.722796E-02  6.458614E-03
83  -999  -999  -999  -999  6.246777E-10  4.250839E-06  2.367022E-01  3.748976E-02  1.722622E-02  6.459118E-03
84  -999  -999  -999  -999  4.858253E-10  4.297155E-06  2.366098E-01  3.745439E-02  1.719155E-02  6.459989E-03
85  -999  -999  -999  -999  5.439045E-10  4.390263E-06  2.364076E-01  3.738589E-02  1.712781E-02  6.487069E-03
86  -999  -999  -999  -999  5.062079E-10  4.568985E-06  2.359913E-01  3.722542E-02  1.696947E-02  6.546941E-03
87  -999  -999  -999  -999  7.209305E-10  4.918019E-06  2.353044E-01  3.699050E-02  1.670727E-02  6.625102E-03
88  -999  -999  -999  -999  5.636022E-10  4.987200E-06  2.351865E-01  3.694661E-02  1.666410E-02  6.643324E-03
89  -999  -999  -999  -999  6.718931E-10  5.129905E-06  2.348920E-01  3.686617E-02  1.657566E-02  6.686761E-03
90  -999  -999  -999  -999  6.113091E-10  5.378061E-06  2.343420E-01  3.663858E-02  1.634651E-02  6.757399E-03
91  -999  -999  -999  -999  4.689880E-10  5.429232E-06  2.342350E-01  3.659286E-02  1.630928E-02  6.769510E-03
92  -999  -999  -999  -999  5.290698E-10  5.530134E-06  2.340137E-01  3.652283E-02  1.624011E-02  6.803534E-03
93  -999  -999  -999  -999  5.192152E-10  5.574144E-06  2.339438E-01  3.649479E-02  1.621181E-02  6.814100E-03
94  -999  -999  -999  -999  4.878855E-10  5.729926E-06  2.335203E-01  3.632598E-02  1.604074E-02  6.876640E-03
95  -999  -999  -999  -999  6.976788E-10  6.037721E-06  2.328739E-01  3.608443E-02  1.576563E-02  6.961301E-03
96  -999  -999  -999  -999  5.385381E-10  6.086782E-06  2.327019E-01  3.604002E-02  1.572109E-02  6.985513E-03
97  -999  -999  -999  -999  4.070738E-10  6.184657E-06  2.323732E-01  3.589010E-02  1.558990E-02  7.030446E-03
98  -999  -999  -999  -999  5.350611E-10  6.358076E-06  2.318693E-01  3.569796E-02  1.537960E-02  7.087840E-03
99  -999  -999  -999  -999  4.249189E-10  6.386373E-06  2.317785E-01  3.566578E-02  1.534552E-02  7.101897E-03
100  -999  -999  -999  -999  5.043151E-10  6.449715E-06  2.315688E-01  3.560474E-02  1.527606E-02  7.131095E-03
101  -999  -999  -999  -999  4.718349E-10  6.535130E-06  2.311761E-01  3.542992E-02  1.509475E-02  7.177354E-03
102  -999  -999  -999  -999  3.695845E-10  6.550364E-06  2.310978E-01  3.539516E-02  1.506530E-02  7.185629E-03
103  -999  -999  -999  -999  4.144603E-10  6.582894E-06  2.309376E-01  3.534195E-02  1.501098E-02  7.208974E-03
104  -999  -999  -999  -999  3.897155E-10  6.622649E-06  2.306286E-01  3.520942E-02  1.487328E-02  7.252126E-03
105  -999  -999  -999  -999  5.555383E-10  6.734009E-06  2.301628E-01  3.502650E-02  1.465611E-02  7.307034E-03
106  -999  -999  -999  -999  4.273475E-10  6.704762E-06  2.300413E-01  3.499112E-02  1.462034E-02  7.321814E-03
107  -999  -999  -999  -999  3.342117E-10  6.694826E-06  2.298091E-01  3.487581E-02  1.451522E-02  7.350136E-03
108  -999  -999  -999  -999  4.344329E-10  6.696939E-06  2.294515E-01  3.472882E-02  1.434764E-02  7.384328E-03
109  -999  -999  -999  -999  3.429534E-10  6.684322E-06  2.293856E-01  3.470382E-02  1.432001E-02  7.392871E-03
110  -999  -999  -999  -999  2.781253E-10  6.658593E-06  2.292120E-01  3.462231E-02  1.424281E-02  7.414838E-03
111  -999  -999  -999  -999  3.539994E-10  6.621479E-06  2.289436E-01  3.451157E-02  1.411459E-02  7.438140E-03
112  -999  -999  -999  -999  2.863471E-10  6.606835E-06  2.288893E-01  3.448947E-02  1.409321E-02  7.442966E-03
113  -999  -999  -999  -999  3.302833E-10  6.590680E-06  2.287779E-01  3.445316E-02  1.405113E-02  7.456693E-03
114  -999  -999  -999  -999  3.211985E-10  6.533063E-06  2.285552E-01  3.434977E-02  1.394016E-02  7.483943E-03
115  -999  -999  -999  -999  3.688789E-10  6.372176E-06  2.281784E-01  3.418162E-02  1.375041E-02  7.515217E-03
116  -999  -999  -999  -999  3.009127E-10  6.357541E-06  2.280973E-01  3.414726E-02  1.371144E-02  7.526422E-03
117  -999  -999  -999  -999  2.679463E-10  6.311287E-06  2.279378E-01  3.406906E-02  1.363109E-02  7.542173E-03
118  -999  -999  -999  -999  3.573784E-10  6.254970E-06  2.276799E-01  3.396210E-02  1.350323E-02  7.561768E-03
119  -999  -999  -999  -999  2.790795E-10  6.224647E-06  2.276303E-01  3.394255E-02  1.348123E-02  7.567471E-03
120  -999  -999  -999  -999  2.330051E-10  6.166208E-06  2.275023E-01  3.387905E-02  1.341962E-02  7.582268E-03
121  -999  -999  -999  -999  2.916727E-10  6.079408E-06  2.273091E-01  3.379307E-02  1.331693E-02  7.594888E-03
122  -999  -999  -999  -999  3.769904E-10  5.799580E-06  2.269544E-01  3.363103E-02  1.312397E-02  7.629431E-03
123  -999  -999  -999  -999  2.942031E-10  5.765434E-06  2.268738E-01  3.359027E-02  1.307945E-02  7.634763E-03
124  -999  -999  -999  -999  2.632719E-10  5.671787E-06  2.267183E-01  3.350830E-02  1.299617E-02  7.651358E-03
125  -999  -999  -999  -999  3.008544E-10  5.445444E-06  2.264575E-01  3.338661E-02  1.285586E-02  7.669067E-03
126  -999  -999  -999  -999  2.402810E-10  5.416776E-06  2.264008E-01  3.336050E-02  1.282591E-02  7.675886E-03
127  -999  -999  -999  -999  2.190330E-10  5.336265E-06  2.262928E-01  3.330202E-02  1.276419E-02  7.684160E-03
128  -999  -999  -999  -999  1.811855E-10  5.320425E-06  2.262740E-01  3.329262E-02  1.275403E-02  7.683702E-03
129  -999  -999  -999  -999  1.907923E-10  5.295500E-06  2.262289E-01  3.327440E-02  1.273581E-02  7.687878E-03
130  -999  -999  -999  -999  1.874127E-10  5.225887E-06  2.261461E-01  3.323225E-02  1.268909E-02  7.694262E-03
131  -999  -999  -999  -999  1.627602E-10  5.212993E-06  2.261315E-01  3.322553E-02  1.268108E-02  7.694248E-03
132  -999  -999  -999  -999  1.711565E-10  5.190231E-06  2.260974E-01  3.321178E-02  1.266647E-02  7.696501E-03
133  -999  -999  -999  -999  1.684131E-10  5.132593E-06  2.260313E-01  3.317867E-02  1.262953E-02  7.701965E-03
134  -999  -999  -999  -999  2.119029E-10  5.042145E-06  2.259162E-01  3.312830E-02  1.256603E-02  7.709564E-03
135  -999  -999  -999  -999  2.651015E-10  4.810408E-06  2.257081E-01  3.302709E-02  1.244424E-02  7.721878E-03
136  -999  -999  -999  -999  2.097698E-10  4.781690E-06  2.256567E-01  3.300452E-02  1.241799E-02  7.728020E-03
137  -999  -999  -999  -999  1.936709E-10  4.698043E-06  2.255683E-01  3.295326E-02  1.236368E-02  7.734128E-03
138  -999  -999  -999  -999  2.180103E-10  4.517755E-06  2.254138E-01  3.287463E-02  1.227199E-02  7.740323E-03
139  -999  -999  -999  -999  1.770885E-10  4.494283E-06  2.253775E-01  3.285805E-02  1.225384E-02  7.744471E-03
140  -999  -999  -999  -999  1.666404E-10  4.426471E-06  2.253083E-01  3.282098E-02  1.221352E-02  7.750346E-03
141  -999  -999  -999  -999  2.122053E-10  4.324114E-06  2.251982E-01  3.276924E-02  1.214831E-02  7.754196E-03
142  -999  -999  -999  -999  1.701191E-10  4.291742E-06  2.251734E-01  3.275720E-02  1.213677E-02  7.756560E-03
143  -999  -999  -999  -999  1.512206E-10  4.226945E-06  2.251200E-01  3.272690E-02  1.210603E-02  7.761086E-03
144  -999  -999  -999  -999  1.814758E-10  4.126274E-06  2.250298E-01  3.268360E-02  1.205355E-02  7.766919E-03
145  -999  -999  -999  -999  2.259601E-10  3.890846E-06  2.248690E-01  3.260140E-02  1.195441E-02  7.774356E-03
146  -999  -999  -999  -999  1.788048E-10  3.860755E-06  2.248302E-01  3.258306E-02  1.193307E-02  7.778511E-03
147  -999  -999  -999  -999  1.666552E-10  3.773892E-06  2.247646E-01  3.254153E-02  1.188863E-02  7.781959E-03
148  -999  -999  -999  -999  1.884674E-10  3.603456E-06  2.246481E-01  3.247785E-02  1.181426E-02  7.784815E-03
149  -999  -999  -999  -999  1.532035E-10  3.581987E-06  2.246203E-01  3.246450E-02  1.179952E-02  7.787692E-03
150  -999  -999  -999  -999  1.448011E-10  3.516622E-06  2.245689E-01  3.243447E-02  1.176661E-02  7.791194E-03
151  -999  -999  -999  -999  1.588134E-10  3.389349E-06  2.244756E-01  3.238601E-02  1.171023E-02  7.793658E-03
152  -999  -999  -999  -999  2.043453E-10  3.163983E-06  2.243115E-01  3.229181E-02  1.159924E-02  7.801653E-03
153  -999  -999  -999  -999  1.292052E-10  3.120313E-06  2.242742E-01  3.227494E-02  1.158062E-02  7.803364E-03
154  -999  -999  -999  -999  1.501289E-10  3.051344E-06  2.242095E-01  3.224264E-02  1.154297E-02  7.806656E-03
155  -999  -999  -999  -999  1.846568E-10  2.880055E-06  2.240959E-01  3.218038E-02  1.146811E-02  7.809043E-03
156  -999  -999  -999  -999  2.595653E-10  2.581866E-06  2.239098E-01  3.205864E-02  1.132051E-02  7.814163E-03
157  -999  -999  -999  -999  1.443298E-10  2.515841E-06  2.238603E-01  3.203434E-02  1.129911E-02  7.818497E-03
158  -999  -999  -999  -999  1.493890E-10  2.396926E-06  2.237856E-01  3.198976E-02  1.124860E-02  7.817950E-03
159  -999  -999  -999  -999  1.922439E-10  2.190756E-06  2.236528E-01  3.190300E-02  1.114560E-02  7.820462E-03
160  -999  -999  -999  -999  1.192828E-10  2.148963E-06  2.236169E-01  3.188559E-02  1.112770E-02  7.822396E-03
161  -999  -999  -999  -999  1.209294E-10  2.069240E-06  2.235591E-01  3.185387E-02  1.109256E-02  7.822557E-03
162  -999  -999  -999  -999  1.512773E-10  1.926266E-06  2.234649E-01  3.179364E-02  1.102149E-02  7.822377E-03
163  -999  -999  -999  -999  1.005858E-10  1.897617E-06  2.234409E-01  3.178311E-02  1.101023E-02  7.823656E-03
164  -999  -999  -999  -999  1.133583E-10  1.852957E-06  2.234018E-01  3.176098E-02  1.098479E-02  7.823959E-03
165  -999  -999  -999  -999  1.356471E-10  1.747894E-06  2.233392E-01  3.172023E-02  1.093560E-02  7.821395E-03
166  -999  -999  -999  -999  2.203702E-10  1.567193E-06  2.232294E-01  3.164944E-02  1.084941E-02  7.820428E-03
167  -999  -999  -999  -999  1.135969E-10  1.538700E-06  2.231995E-01  3.162834E-02  1.082870E-02  7.819633E-03
168  -999  -999  -999  -999  1.147733E-10  1.475665E-06  2.231582E-01  3.159540E-02  1.079201E-02  7.816003E-03
169  -999  -999  -999  -999  1.496286E-10  1.359795E-06  2.230771E-01  3.154388E-02  1.073097E-02  7.814609E-03
170  -999  -999  -999  -999  8.944099E-11  1.337463E-06  2.230577E-01  3.153151E-02  1.071823E-02  7.814739E-03
171  -999  -999  -999  -999  9.109186E-11  1.294356E-06  2.230259E-01  3.150910E-02  1.069342E-02  7.812632E-03
172  -999  -999  -999  -999  1.139386E-10  1.217157E-06  2.229756E-01  3.146901E-02  1.064625E-02  7.808600E-03
173  -999  -999  -999  -999  5.453250E-10  1.083519E-06  2.228840E-01  3.140346E-02  1.056839E-02  7.801959E-03
174  -999  -999  -999  -999  7.502476E-11  1.054201E-06  2.228613E-01  3.138818E-02  1.055418E-02  7.800700E-03
175  -999  -999  -999  -999  8.536934E-11  1.008474E-06  2.228284E-01  3.136167E-02  1.052394E-02  7.797129E-03
176  -999  -999  -999  -999  2.469457E-10  9.180257E-07  2.227734E-01  3.131624E-02  1.047037E-02  7.790681E-03
177  -999  -999  -999  -999  6.948804E-11  9.048521E-07  2.227561E-01  3.130544E-02  1.045939E-02  7.790834E-03
178  -999  -999  -999  -999  7.173600E-11  8.734248E-07  2.227364E-01  3.128830E-02  1.044040E-02  7.786751E-03
179  -999  -999  -999  -999  5.502744E-11  8.656647E-07  2.227290E-01  3.128429E-02  1.043692E-02  7.787292E-03
180  -999  -999  -999  -999  5.692871E-11  8.541542E-07  2.227173E-01  3.127685E-02  1.042903E-02  7.786804E-03
181  -999  -999  -999  -999  6.034129E-11  8.277736E-07  2.227009E-01  3.126436E-02  1.041405E-02  7.783741E-03
182  -999  -999  -999  -999  7.640022E-11  7.798248E-07  2.226737E-01  3.123982E-02  1.038535E-02  7.779386E-03
183  -999  -999  -999  -999  5.360462E-11  7.697537E-07  2.226648E-01  3.123592E-02  1.038130E-02  7.779341E-03
184  -999  -999  -999  -999  5.304918E-11  7.509792E-07  2.226521E-01  3.122482E-02  1.036970E-02  7.777514E-03
185  -999  -999  -999  -999  5.300704E-11  7.504170E-07  2.226518E-01  3.122449E-02  1.036933E-02  7.777441E-03
186  -999  -999  -999  -999  4.942746E-11  7.504348E-07  2.226493E-01  3.122234E-02  1.036708E-02  7.776773E-03
187  -999  -999  -999  -999  4.750465E-11  7.408813E-07  2.226446E-01  3.121733E-02  1.036180E-02  7.775968E-03
188  -999  -999  -999  -999  5.192768E-11  7.279785E-07  2.226351E-01  3.121005E-02  1.035321E-02  7.774886E-03
189  -999  -999  -999  -999  5.679248E-11  6.996215E-07  2.226219E-01  3.119638E-02  1.033687E-02  7.770808E-03
190  -999  -999  -999  -999  4.549493E-11  6.932727E-07  2.226165E-01  3.119204E-02  1.033285E-02  7.770873E-03
191  -999  -999  -999  -999  4.732326E-11  6.837639E-07  2.226082E-01  3.118595E-02  1.032636E-02  7.770158E-03
192  -999  -999  -999  -999  4.991126E-11  6.628209E-07  2.225961E-01  3.117562E-02  1.031416E-02  7.767477E-03
193  -999  -999  -999  -999  6.422727E-11  6.245111E-07  2.225762E-01  3.115426E-02  1.028980E-02  7.763205E-03
194  -999  -999  -999  -999  4.444015E-11  6.166929E-07  2.225697E-01  3.115008E-02  1.028549E-02  7.762923E-03
195  -999  -999  -999  -999  4.393866E-11  6.022649E-07  2.225607E-01  3.114171E-02  1.027669E-02  7.761090E-03
196  -999  -999  -999  -999  4.952690E-11  5.752867E-07  2.225460E-01  3.112634E-02  1.025909E-02  7.757224E-03
197  -999  -999  -999  -999  3.985912E-11  5.697375E-07  2.225414E-01  3.112286E-02  1.025566E-02  7.757004E-03
198  -999  -999  -999  -999  4.246823E-11  5.607261E-07  2.225340E-01  3.111706E-02  1.024927E-02  7.756157E-03
199  -999  -999  -999  -999  4.578067E-11  5.397736E-07  2.225255E-01  3.110649E-02  1.023672E-02  7.752545E-03
200  -999  -999  -999  -999  9.518182E-11  5.021335E-07  2.225040E-01  3.108613E-02  1.021359E-02  7.748487E-03
201  -999  -999  -999  -999  4.022647E-11  4.949332E-07  2.224983E-01  3.108118E-02  1.020870E-02  7.747926E-03
202  -999  -999  -999  -999  4.046208E-11  4.801932E-07  2.224919E-01  3.107248E-02  1.019923E-02  7.745237E-03
203  -999  -999  -999  -999  5.168377E-11  4.531104E-07  2.224784E-01  3.105709E-02  1.018205E-02  7.741646E-03
204  -999  -999  -999  -999  3.465287E-11  4.476284E-07  2.224736E-01  3.105384E-02  1.017883E-02  7.741326E-03
205  -999  -999  -999  -999  3.418454E-11  4.367424E-07  2.224675E-01  3.104737E-02  1.017212E-02  7.739907E-03
206  -999  -999  -999  -999  3.876099E-11  4.169671E-07  2.224589E-01  3.103639E-02  1.015947E-02  7.736577E-03
207  -999  -999  -999  -999  3.144245E-11  4.126273E-07  2.224555E-01  3.103349E-02  1.015673E-02  7.736482E-03
208  -999  -999  -999  -999  3.061233E-11  4.043605E-07  2.224503E-01  3.102854E-02  1.015173E-02  7.735527E-03
209  -999  -999  -999  -999  3.466093E-11  3.908408E-07  2.224449E-01  3.102101E-02  1.014264E-02  7.732742E-03
210  -999  -999  -999  -999  2.895398E-11  3.868786E-07  2.224416E-01  3.101827E-02  1.014017E-02  7.732760E-03
211  -999  -999  -999  -999  2.966113E-11  3.811867E-07  2.224381E-01  3.101499E-02  1.013671E-02  7.731958E-03
212  -999  -999  -999  -999  3.060028E-11  3.693672E-07  2.224331E-01  3.100926E-02  1.013004E-02  7.729956E-03
213  -999  -999  -999  -999  4.183981E-11  3.481533E-07  2.224227E-01  3.099682E-02  1.011623E-02  7.727248E-03
214  -999  -999  -999  -999  2.812775E-11  3.433385E-07  2.224203E-01  3.099432E-02  1.011373E-02  7.726596E-03
215  -999  -999  -999  -999  2.760789E-11  3.348417E-07  2.224158E-01  3.098962E-02  1.010893E-02  7.725457E-03
216  -999  -999  -999  -999  3.112154E-11  3.197615E-07  2.224097E-01  3.098156E-02  1.009971E-02  7.722799E-03
217  -999  -999  -999  -999  2.561514E-11  3.162458E-07  2.224070E-01  3.097956E-02  1.009786E-02  7.722726E-03
218  -999  -999  -999  -999  2.487152E-11  3.098332E-07  2.224032E-01  3.097570E-02  1.009400E-02  7.721941E-03
219  -999  -999  -999  -999  2.628771E-11  2.984415E-07  2.223982E-01  3.096912E-02  1.008653E-02  7.719881E-03
220  -999  -999  -999  -999  7.139295E-11  2.773620E-07  2.223886E-01  3.095693E-02  1.007303E-02  7.716524E-03
221  -999  -999  -999  -999  2.379467E-11  2.730382E-07  2.223847E-01  3.095430E-02  1.007049E-02  7.716565E-03
222  -999  -999  -999  -999  2.362941E-11  2.645467E-07  2.223818E-01  3.094995E-02  1.006578E-02  7.714981E-03
223  -999  -999  -999  -999  3.298878E-11  2.496125E-07  2.223738E-01  3.094147E-02  1.005658E-02  7.713038E-03
224  -999  -999  -999  -999  2.155944E-11  2.465187E-07  2.223721E-01  3.093915E-02  1.005429E-02  7.712551E-03
225  -999  -999  -999  -999  2.132314E-11  2.404207E-07  2.223692E-01  3.093551E-02  1.005053E-02  7.711592E-03
226  -999  -999  -999  -999  2.313853E-11  2.290783E-07  2.223646E-01  3.092938E-02  1.004377E-02  7.709749E-03
227  -999  -999  -999  -999  1.912839E-11  2.267415E-07  2.223626E-01  3.092805E-02  1.004252E-02  7.709670E-03
228  -999  -999  -999  -999  1.871151E-11  2.222350E-07  2.223600E-01  3.092531E-02  1.003978E-02  7.709112E-03
229  -999  -999  -999  -999  1.950192E-11  2.139685E-07  2.223565E-01  3.092042E-02  1.003436E-02  7.707521E-03
230  -999  -999  -999  -999  5.986012E-11  1.991525E-07  2.223498E-01  3.091166E-02  1.002478E-02  7.705577E-03
231  -999  -999  -999  -999  1.812467E-11  1.958377E-07  2.223470E-01  3.090974E-02  1.002292E-02  7.705246E-03
232  -999  -999  -999  -999  1.795020E-11  1.896857E-07  2.223449E-01  3.090649E-02  1.001943E-02  7.703968E-03
233  -999  -999  -999  -999  2.587373E-11  1.787515E-07  2.223395E-01  3.090024E-02  1.001269E-02  7.702421E-03
234  -999  -999  -999  -999  1.636555E-11  1.764236E-07  2.223380E-01  3.089892E-02  1.001144E-02  7.702240E-03
235  -999  -999  -999  -999  1.609671E-11  1.720645E-07  2.223360E-01  3.089630E-02  1.000876E-02  7.701517E-03
236  -999  -999  -999  -999  1.756950E-11  1.640494E-07  2.223320E-01  3.089146E-02  1.000358E-02  7.700380E-03
237  -999  -999  -999  -999  1.458540E-11  1.623178E-07  2.223309E-01  3.089050E-02  1.000266E-02  7.700177E-03
238  -999  -999  -999  -999  1.423635E-11  1.590751E-07  2.223290E-01  3.088853E-02  1.000073E-02  7.699789E-03
239  -999  -999  -999  -999  1.482008E-11  1.532524E-07  2.223265E-01  3.088515E-02  9.996971E-03  7.698715E-03
240  -999  -999  -999  -999  1.347744E-11  1.518976E-07  2.223255E-01  3.088417E-02  9.996064E-03  7.698626E-03
241  -999  -999  -999  -999  1.392426E-11  1.497440E-07  2.223242E-01  3.088288E-02  9.994696E-03  7.698284E-03
242  -999  -999  -999  -999  1.407533E-11  1.451300E-07  2.223223E-01  3.088052E-02  9.992039E-03  7.697532E-03
243  -999  -999  -999  -999  2.180964E-11  1.370425E-07  2.223182E-01  3.087524E-02  9.986449E-03  7.696345E-03
244  -999  -999  -999  -999  1.298075E-11  1.352592E-07  2.223168E-01  3.087439E-02  9.985675E-03  7.696220E-03
245  -999  -999  -999  -999  1.279703E-11  1.318148E-07  2.223151E-01  3.087254E-02  9.983760E-03  7.695694E-03
246  -999  -999  -999  -999  1.422200E-11  1.257461E-07  2.223116E-01  3.086873E-02  9.979752E-03  7.694904E-03
247  -999  -999  -999  -999  1.171041E-11  1.243960E-07  2.223109E-01  3.086779E-02  9.978865E-03  7.694730E-03
248  -999  -999  -999  -999  1.142150E-11  1.219388E-07  2.223093E-01  3.086631E-02  9.977417E-03  7.694449E-03
249  -999  -999  -999  -999  1.193457E-11  1.175738E-07  2.223073E-01  3.086380E-02  9.974654E-03  7.693708E-03
250  -999  -999  -999  -999  1.084325E-11  1.165074E-07  2.223066E-01  3.086322E-02  9.974122E-03  7.693647E-03
251  -999  -999  -999  -999  1.056658E-11  1.146229E-07  2.223053E-01  3.086203E-02  9.972979E-03  7.693431E-03
252  -999  -999  -999  -999  1.120577E-11  1.116178E-07  2.223040E-01  3.086019E-02  9.970862E-03  7.692797E-03
253  -999  -999  -999  -999  1.893404E-11  1.049274E-07  2.223002E-01  3.085611E-02  9.966653E-03  7.692047E-03
254  -999  -999  -999  -999  1.015625E-11  1.036413E-07  2.222992E-01  3.085534E-02  9.965900E-03  7.691919E-03
255  -999  -999  -999  -999  9.985220E-12  1.010909E-07  2.222978E-01  3.085385E-02  9.964377E-03  7.691543E-03
256  -999  -999  -999  -999  1.136239E-11  9.645804E-08  2.222950E-01  3.085092E-02  9.961336E-03  7.690978E-03
257  -999  -999  -999  -999  9.295407E-12  9.547638E-08  2.222944E-01  3.085041E-02  9.960848E-03  7.690879E-03
258  -999  -999  -999  -999  9.095428E-12  9.353371E-08  2.222931E-01  3.084923E-02  9.959705E-03  7.690715E-03
259  -999  -999  -999  -999  9.541624E-12  9.014944E-08  2.222913E-01  3.084711E-02  9.957426E-03  7.690158E-03
260  -999  -999  -999  -999  8.636227E-12  8.926980E-08  2.222908E-01  3.084652E-02  9.956872E-03  7.690095E-03
261  -999  -999  -999  -999  8.403895E-12  8.777225E-08  2.222898E-01  3.084564E-02  9.956026E-03  7.689934E-03
262  -999  -999  -999  -999  8.484200E-12  8.520506E-08  2.222884E-01  3.084410E-02  9.954383E-03  7.689552E-03
263  -999  -999  -999  -999  1.682281E-11  8.048928E-08  2.222854E-01  3.084106E-02  9.951223E-03  7.688996E-03
264  -999  -999  -999  -999  8.078019E-12  7.940952E-08  2.222846E-01  3.084052E-02  9.950676E-03  7.688885E-03
265  -999  -999  -999  -999  7.933493E-12  7.739640E-08  2.222837E-01  3.083943E-02  9.949542E-03  7.688556E-03
266  -999  -999  -999  -999  9.340174E-12  7.387880E-08  2.222816E-01  3.083719E-02  9.947226E-03  7.688103E-03
267  -999  -999  -999  -999  7.403031E-12  7.308217E-08  2.222811E-01  3.083661E-02  9.946681E-03  7.688051E-03