VARIABLES= iterations rms_res_mf1 rms_res_mf2 rms_res_mf3 rms_res_mf4 rms_res_mf5 rms_res_trb1 CL CD CDv CM
ZONE T = "USM3D-ME, MITAdapted_X0160K"
1  -999  -999  -999  -999  2.040793E-06  4.535921E-05  -5.053221E-03  2.137831E-01  2.137831E-01  1.216475E-04
2  -999  -999  -999  -999  1.715103E-06  4.021166E-05  5.930103E-01  4.977521E-01  2.134130E-01  -1.535338E-01
3  -999  -999  -999  -999  1.338887E-06  3.279666E-05  1.311514E+00  8.579960E-01  2.126788E-01  -3.342388E-01
4  -999  -999  -999  -999  1.038377E-06  2.388958E-05  1.790996E+00  1.111583E+00  2.112162E-01  -4.537299E-01
5  -999  -999  -999  -999  8.567430E-07  1.433041E-05  1.836343E+00  1.134358E+00  2.082988E-01  -4.664978E-01
6  -999  -999  -999  -999  7.095422E-07  3.889473E-06  1.741418E+00  1.074448E+00  2.025894E-01  -4.434468E-01
7  -999  -999  -999  -999  5.803550E-07  2.292360E-06  1.700888E+00  1.025801E+00  1.922852E-01  -4.350249E-01
8  -999  -999  -999  -999  4.739436E-07  1.681882E-06  1.639529E+00  9.309530E-01  1.749082E-01  -4.227019E-01
9  -999  -999  -999  -999  3.295743E-07  1.364858E-06  1.430933E+00  7.110059E-01  1.490627E-01  -3.603590E-01
10  -999  -999  -999  -999  1.474672E-07  1.213464E-06  9.897999E-01  3.758921E-01  1.177023E-01  -1.913856E-01
11  -999  -999  -999  -999  8.676768E-08  1.273890E-06  4.232156E-01  1.268285E-01  8.685315E-02  -3.129959E-03
12  -999  -999  -999  -999  4.533107E-08  1.551098E-06  2.486662E-01  6.656504E-02  6.202637E-02  2.365413E-02
13  -999  -999  -999  -999  3.224975E-08  1.572270E-06  2.430817E-01  6.371442E-02  5.815094E-02  2.107913E-02
14  -999  -999  -999  -999  3.321411E-08  1.719455E-06  2.776727E-01  6.907320E-02  5.256683E-02  8.396752E-03
15  -999  -999  -999  -999  3.253222E-08  2.013238E-06  3.118204E-01  7.283907E-02  4.548884E-02  -3.168231E-04
16  -999  -999  -999  -999  3.399887E-08  2.317214E-06  3.097899E-01  6.665064E-02  3.780368E-02  2.825977E-04
17  -999  -999  -999  -999  3.625437E-08  2.581079E-06  2.932456E-01  5.698471E-02  3.096615E-02  2.237650E-03
18  -999  -999  -999  -999  1.739315E-08  2.021261E-06  2.893212E-01  5.506483E-02  2.991910E-02  2.702136E-03
19  -999  -999  -999  -999  2.054323E-08  1.772655E-06  2.836367E-01  5.268752E-02  2.835119E-02  2.999713E-03
20  -999  -999  -999  -999  1.652565E-08  1.748355E-06  2.824744E-01  5.222750E-02  2.812871E-02  3.051254E-03
21  -999  -999  -999  -999  1.164107E-08  1.703132E-06  2.798986E-01  5.126731E-02  2.762488E-02  3.286027E-03
22  -999  -999  -999  -999  1.625838E-08  1.676190E-06  2.760639E-01  5.032007E-02  2.682141E-02  3.451990E-03
23  -999  -999  -999  -999  1.322422E-08  1.682170E-06  2.753155E-01  5.009921E-02  2.669598E-02  3.456807E-03
24  -999  -999  -999  -999  8.964260E-09  1.699110E-06  2.736267E-01  4.958869E-02  2.640663E-02  3.591151E-03
25  -999  -999  -999  -999  1.181038E-08  1.761214E-06  2.706661E-01  4.900482E-02  2.591090E-02  3.840178E-03
26  -999  -999  -999  -999  1.895477E-08  1.943438E-06  2.671784E-01  4.846960E-02  2.515328E-02  3.807239E-03
27  -999  -999  -999  -999  1.458219E-08  1.985015E-06  2.665159E-01  4.827944E-02  2.504300E-02  3.890028E-03
28  -999  -999  -999  -999  9.173410E-09  2.072694E-06  2.644193E-01  4.771841E-02  2.474185E-02  4.150498E-03
29  -999  -999  -999  -999  1.220939E-08  2.253900E-06  2.619944E-01  4.719435E-02  2.423000E-02  4.189180E-03
30  -999  -999  -999  -999  1.473874E-08  2.552024E-06  2.584142E-01  4.643440E-02  2.341292E-02  4.433243E-03
31  -999  -999  -999  -999  6.901518E-09  2.572630E-06  2.571588E-01  4.599290E-02  2.320521E-02  4.559223E-03
32  -999  -999  -999  -999  7.403665E-09  2.671140E-06  2.555427E-01  4.549886E-02  2.285699E-02  4.664730E-03
33  -999  -999  -999  -999  8.748694E-09  2.870257E-06  2.533985E-01  4.496434E-02  2.226667E-02  4.608680E-03
34  -999  -999  -999  -999  8.078410E-09  2.911011E-06  2.530250E-01  4.488283E-02  2.215967E-02  4.636232E-03
35  -999  -999  -999  -999  5.851826E-09  2.996581E-06  2.519433E-01  4.455524E-02  2.191232E-02  4.726119E-03
36  -999  -999  -999  -999  8.302782E-09  3.215143E-06  2.506416E-01  4.422375E-02  2.150156E-02  4.636667E-03
37  -999  -999  -999  -999  6.530915E-09  3.257016E-06  2.503852E-01  4.414825E-02  2.143570E-02  4.670754E-03
38  -999  -999  -999  -999  4.214397E-09  3.352330E-06  2.495663E-01  4.388829E-02  2.125538E-02  4.743482E-03
39  -999  -999  -999  -999  5.729519E-09  3.567414E-06  2.486167E-01  4.363149E-02  2.093613E-02  4.683776E-03
40  -999  -999  -999  -999  5.732185E-09  3.568569E-06  2.486107E-01  4.362983E-02  2.093401E-02  4.683982E-03
41  -999  -999  -999  -999  4.594416E-09  3.612184E-06  2.483988E-01  4.355335E-02  2.088012E-02  4.691396E-03
42  -999  -999  -999  -999  5.637090E-09  3.713133E-06  2.480171E-01  4.348948E-02  2.077502E-02  4.706496E-03
43  -999  -999  -999  -999  4.696853E-09  3.886075E-06  2.471476E-01  4.322147E-02  2.049898E-02  4.735863E-03
44  -999  -999  -999  -999  3.693740E-09  3.923952E-06  2.469777E-01  4.315268E-02  2.045212E-02  4.717370E-03
45  -999  -999  -999  -999  4.257851E-09  4.006795E-06  2.466548E-01  4.305329E-02  2.036581E-02  4.743335E-03
46  -999  -999  -999  -999  3.553372E-09  4.149583E-06  2.459577E-01  4.283600E-02  2.014997E-02  4.785260E-03
47  -999  -999  -999  -999  5.276433E-09  4.444702E-06  2.449643E-01  4.255966E-02  1.978339E-02  4.754321E-03
48  -999  -999  -999  -999  4.162961E-09  4.498082E-06  2.447593E-01  4.249636E-02  1.971988E-02  4.780487E-03
49  -999  -999  -999  -999  2.735812E-09  4.612115E-06  2.441580E-01  4.228040E-02  1.955007E-02  4.839958E-03
50  -999  -999  -999  -999  3.702086E-09  4.855056E-06  2.433505E-01  4.202455E-02  1.925337E-02  4.844891E-03
51  -999  -999  -999  -999  2.975320E-09  4.903823E-06  2.431827E-01  4.196399E-02  1.920190E-02  4.857766E-03
52  -999  -999  -999  -999  3.631062E-09  5.012649E-06  2.428595E-01  4.189288E-02  1.910292E-02  4.881146E-03
53  -999  -999  -999  -999  3.103918E-09  5.219208E-06  2.421327E-01  4.164062E-02  1.884364E-02  4.936372E-03
54  -999  -999  -999  -999  2.453599E-09  5.264939E-06  2.419868E-01  4.158090E-02  1.879870E-02  4.933700E-03
55  -999  -999  -999  -999  2.803579E-09  5.362600E-06  2.417087E-01  4.149202E-02  1.871675E-02  4.965403E-03
56  -999  -999  -999  -999  2.413653E-09  5.561430E-06  2.411178E-01  4.128653E-02  1.851257E-02  5.026327E-03
57  -999  -999  -999  -999  3.506090E-09  6.052751E-06  2.401809E-01  4.099414E-02  1.816511E-02  5.078503E-03
58  -999  -999  -999  -999  2.789828E-09  6.157829E-06  2.400023E-01  4.093759E-02  1.810443E-02  5.102963E-03
59  -999  -999  -999  -999  3.308985E-09  6.392526E-06  2.395949E-01  4.083395E-02  1.798689E-02  5.149260E-03
60  -999  -999  -999  -999  2.806586E-09  6.925345E-06  2.387509E-01  4.051358E-02  1.767900E-02  5.240590E-03
61  -999  -999  -999  -999  2.174725E-09  7.038929E-06  2.386093E-01  4.045232E-02  1.762651E-02  5.259362E-03
62  -999  -999  -999  -999  2.490224E-09  7.277303E-06  2.382894E-01  4.036198E-02  1.753127E-02  5.301476E-03
63  -999  -999  -999  -999  2.149291E-09  7.801709E-06  2.376450E-01  4.012337E-02  1.729253E-02  5.375184E-03
64  -999  -999  -999  -999  3.128648E-09  8.944518E-06  2.365634E-01  3.978054E-02  1.690063E-02  5.531028E-03
65  -999  -999  -999  -999  2.459809E-09  9.177969E-06  2.362951E-01  3.970549E-02  1.683487E-02  5.560412E-03
66  -999  -999  -999  -999  2.841957E-09  9.655772E-06  2.358476E-01  3.957406E-02  1.670353E-02  5.629282E-03
67  -999  -999  -999  -999  2.463938E-09  1.068327E-05  2.349404E-01  3.921858E-02  1.636127E-02  5.749769E-03
68  -999  -999  -999  -999  2.696922E-09  1.230843E-05  2.334206E-01  3.869696E-02  1.579655E-02  5.996647E-03
69  -999  -999  -999  -999  2.318436E-09  1.262528E-05  2.330776E-01  3.856806E-02  1.568605E-02  6.047431E-03
70  -999  -999  -999  -999  1.798226E-09  1.340721E-05  2.324317E-01  3.832217E-02  1.546372E-02  6.141259E-03
71  -999  -999  -999  -999  1.426776E-09  1.355360E-05  2.323139E-01  3.827880E-02  1.542753E-02  6.159973E-03
72  -999  -999  -999  -999  1.633649E-09  1.382385E-05  2.320641E-01  3.821353E-02  1.536110E-02  6.201123E-03
73  -999  -999  -999  -999  1.445142E-09  1.437148E-05  2.315834E-01  3.804406E-02  1.518999E-02  6.270395E-03
74  -999  -999  -999  -999  2.050273E-09  1.533925E-05  2.307995E-01  3.779406E-02  1.490450E-02  6.396246E-03
75  -999  -999  -999  -999  1.353767E-09  1.529627E-05  2.307709E-01  3.779210E-02  1.489931E-02  6.401692E-03
76  -999  -999  -999  -999  1.095541E-09  1.532301E-05  2.307289E-01  3.778279E-02  1.488894E-02  6.406431E-03
77  -999  -999  -999  -999  9.759287E-10  1.538277E-05  2.306342E-01  3.774492E-02  1.486840E-02  6.416300E-03
78  -999  -999  -999  -999  1.046690E-09  1.549144E-05  2.304597E-01  3.767412E-02  1.482817E-02  6.444217E-03
79  -999  -999  -999  -999  1.437738E-09  1.566543E-05  2.302196E-01  3.761385E-02  1.475174E-02  6.480103E-03
80  -999  -999  -999  -999  1.053880E-09  1.569979E-05  2.301720E-01  3.759214E-02  1.472551E-02  6.485768E-03
81  -999  -999  -999  -999  1.024167E-09  1.577247E-05  2.300725E-01  3.754799E-02  1.468369E-02  6.495972E-03
82  -999  -999  -999  -999  1.296930E-09  1.589720E-05  2.298702E-01  3.748675E-02  1.461716E-02  6.526983E-03
83  -999  -999  -999  -999  1.199590E-09  1.615437E-05  2.294801E-01  3.733680E-02  1.445965E-02  6.582033E-03
84  -999  -999  -999  -999  1.005380E-09  1.619521E-05  2.294011E-01  3.730612E-02  1.443369E-02  6.591551E-03
85  -999  -999  -999  -999  1.130246E-09  1.626261E-05  2.292463E-01  3.725938E-02  1.438666E-02  6.616236E-03
86  -999  -999  -999  -999  1.598931E-09  1.636415E-05  2.289684E-01  3.719723E-02  1.430191E-02  6.658256E-03
87  -999  -999  -999  -999  1.460718E-09  1.668642E-05  2.284588E-01  3.698139E-02  1.407706E-02  6.727418E-03
88  -999  -999  -999  -999  1.172558E-09  1.670862E-05  2.283495E-01  3.694815E-02  1.404191E-02  6.747533E-03
89  -999  -999  -999  -999  1.326198E-09  1.673678E-05  2.281447E-01  3.688672E-02  1.397632E-02  6.779105E-03
90  -999  -999  -999  -999  1.173452E-09  1.684470E-05  2.277608E-01  3.672184E-02  1.380651E-02  6.827606E-03
91  -999  -999  -999  -999  9.568692E-10  1.684120E-05  2.276887E-01  3.669337E-02  1.377954E-02  6.838168E-03
92  -999  -999  -999  -999  1.079398E-09  1.682550E-05  2.275372E-01  3.664790E-02  1.372994E-02  6.861280E-03
93  -999  -999  -999  -999  9.724540E-10  1.806519E-05  2.272506E-01  3.652687E-02  1.360189E-02  6.898342E-03
94  -999  -999  -999  -999  1.341783E-09  1.699629E-05  2.267859E-01  3.635244E-02  1.339491E-02  6.964954E-03
95  -999  -999  -999  -999  1.087600E-09  1.683539E-05  2.266666E-01  3.632049E-02  1.336406E-02  6.980414E-03
96  -999  -999  -999  -999  8.272431E-10  1.672500E-05  2.264523E-01  3.621741E-02  1.327041E-02  7.009214E-03
97  -999  -999  -999  -999  1.046977E-09  1.658662E-05  2.261273E-01  3.608295E-02  1.311437E-02  7.042094E-03
98  -999  -999  -999  -999  8.798967E-10  1.650327E-05  2.260551E-01  3.606402E-02  1.309053E-02  7.052834E-03
99  -999  -999  -999  -999  1.023820E-09  1.636515E-05  2.259199E-01  3.602235E-02  1.304169E-02  7.070419E-03
100  -999  -999  -999  -999  9.344746E-10  1.616924E-05  2.256546E-01  3.589586E-02  1.290848E-02  7.098628E-03
101  -999  -999  -999  -999  1.027836E-09  1.551749E-05  2.252120E-01  3.571006E-02  1.268974E-02  7.152794E-03
102  -999  -999  -999  -999  1.299550E-09  1.441336E-05  2.245015E-01  3.534097E-02  1.227366E-02  7.231924E-03
103  -999  -999  -999  -999  2.415164E-09  1.271246E-05  2.235338E-01  3.495859E-02  1.180567E-02  7.333371E-03
104  -999  -999  -999  -999  9.346365E-10  1.195950E-05  2.232631E-01  3.479586E-02  1.164513E-02  7.363028E-03
105  -999  -999  -999  -999  7.634146E-10  1.191349E-05  2.232094E-01  3.479218E-02  1.164020E-02  7.369609E-03
106  -999  -999  -999  -999  6.030239E-10  1.174919E-05  2.231081E-01  3.472217E-02  1.157292E-02  7.380387E-03
107  -999  -999  -999  -999  7.452440E-10  1.149010E-05  2.229506E-01  3.463018E-02  1.146643E-02  7.386399E-03
108  -999  -999  -999  -999  6.131897E-10  1.139994E-05  2.229160E-01  3.461817E-02  1.145213E-02  7.390722E-03
109  -999  -999  -999  -999  4.857746E-10  1.120239E-05  2.228280E-01  3.457159E-02  1.140845E-02  7.400214E-03
110  -999  -999  -999  -999  5.887736E-10  1.089737E-05  2.227062E-01  3.451424E-02  1.134037E-02  7.405125E-03
111  -999  -999  -999  -999  6.822390E-10  1.013425E-05  2.224918E-01  3.441953E-02  1.122288E-02  7.420556E-03
112  -999  -999  -999  -999  8.639730E-10  8.889467E-06  2.221330E-01  3.422679E-02  1.100375E-02  7.446972E-03
113  -999  -999  -999  -999  5.281010E-10  8.653102E-06  2.220665E-01  3.419284E-02  1.097108E-02  7.447649E-03
114  -999  -999  -999  -999  4.257725E-10  8.609189E-06  2.220464E-01  3.418519E-02  1.096624E-02  7.449050E-03
115  -999  -999  -999  -999  4.447821E-10  8.550399E-06  2.220111E-01  3.417537E-02  1.095594E-02  7.452325E-03
116  -999  -999  -999  -999  4.105501E-10  8.347251E-06  2.219486E-01  3.414527E-02  1.092319E-02  7.456988E-03
117  -999  -999  -999  -999  5.324954E-10  8.053585E-06  2.218551E-01  3.410299E-02  1.086919E-02  7.456665E-03
118  -999  -999  -999  -999  6.297618E-10  7.311840E-06  2.216879E-01  3.402450E-02  1.076862E-02  7.464912E-03
119  -999  -999  -999  -999  3.845100E-10  7.136053E-06  2.216341E-01  3.398797E-02  1.073924E-02  7.468747E-03
120  -999  -999  -999  -999  4.225445E-10  6.884454E-06  2.215714E-01  3.395289E-02  1.069946E-02  7.467005E-03
121  -999  -999  -999  -999  3.605828E-10  6.826866E-06  2.215554E-01  3.394578E-02  1.069297E-02  7.468648E-03
122  -999  -999  -999  -999  3.081037E-10  6.692910E-06  2.215224E-01  3.392866E-02  1.067581E-02  7.470584E-03
123  -999  -999  -999  -999  3.548349E-10  6.484882E-06  2.214711E-01  3.390422E-02  1.064614E-02  7.470078E-03
124  -999  -999  -999  -999  3.914485E-10  6.081156E-06  2.213784E-01  3.385781E-02  1.059023E-02  7.471112E-03
125  -999  -999  -999  -999  4.993795E-10  5.444789E-06  2.212273E-01  3.376799E-02  1.048088E-02  7.473168E-03
126  -999  -999  -999  -999  3.252776E-10  5.326761E-06  2.211864E-01  3.374480E-02  1.046235E-02  7.474660E-03
127  -999  -999  -999  -999  3.115084E-10  5.094648E-06  2.211315E-01  3.371155E-02  1.042541E-02  7.471025E-03
128  -999  -999  -999  -999  3.717321E-10  4.669952E-06  2.210293E-01  3.365014E-02  1.035042E-02  7.470478E-03
129  -999  -999  -999  -999  2.648192E-10  4.590611E-06  2.210009E-01  3.363452E-02  1.033724E-02  7.470893E-03
130  -999  -999  -999  -999  2.988929E-10  4.462366E-06  2.209675E-01  3.361346E-02  1.031227E-02  7.467394E-03
131  -999  -999  -999  -999  3.383757E-10  4.144763E-06  2.209011E-01  3.357157E-02  1.026247E-02  7.464854E-03
132  -999  -999  -999  -999  2.350103E-10  4.073614E-06  2.208825E-01  3.355783E-02  1.024934E-02  7.465513E-03
133  -999  -999  -999  -999  2.487804E-10  3.961022E-06  2.208557E-01  3.354015E-02  1.022983E-02  7.463488E-03
134  -999  -999  -999  -999  2.702611E-10  3.726645E-06  2.208079E-01  3.350948E-02  1.019371E-02  7.460243E-03
135  -999  -999  -999  -999  2.015786E-10  3.679502E-06  2.207942E-01  3.349991E-02  1.018451E-02  7.460856E-03
136  -999  -999  -999  -999  2.106916E-10  3.597897E-06  2.207723E-01  3.348569E-02  1.016968E-02  7.460335E-03
137  -999  -999  -999  -999  2.226891E-10  3.433485E-06  2.207411E-01  3.346271E-02  1.014233E-02  7.455189E-03
138  -999  -999  -999  -999  2.688406E-10  3.146565E-06  2.206833E-01  3.341856E-02  1.008879E-02  7.450666E-03
139  -999  -999  -999  -999  1.947587E-10  3.093112E-06  2.206672E-01  3.340709E-02  1.007887E-02  7.449879E-03
140  -999  -999  -999  -999  2.177498E-10  3.006342E-06  2.206483E-01  3.339156E-02  1.006061E-02  7.446239E-03
141  -999  -999  -999  -999  2.476872E-10  2.802950E-06  2.206105E-01  3.336087E-02  1.002462E-02  7.441378E-03
142  -999  -999  -999  -999  1.754690E-10  2.756691E-06  2.205993E-01  3.335155E-02  1.001576E-02  7.441610E-03
143  -999  -999  -999  -999  1.844817E-10  2.681502E-06  2.205839E-01  3.333835E-02  1.000119E-02  7.439030E-03
144  -999  -999  -999  -999  1.988072E-10  2.529115E-06  2.205556E-01  3.331551E-02  9.974641E-03  7.434998E-03
145  -999  -999  -999  -999  1.516497E-10  2.497076E-06  2.205475E-01  3.330893E-02  9.968401E-03  7.435004E-03
146  -999  -999  -999  -999  1.573000E-10  2.442217E-06  2.205344E-01  3.329886E-02  9.957882E-03  7.433986E-03
147  -999  -999  -999  -999  1.648187E-10  2.334306E-06  2.205180E-01  3.328251E-02  9.938380E-03  7.428747E-03
148  -999  -999  -999  -999  1.347516E-10  2.312691E-06  2.205116E-01  3.327761E-02  9.933742E-03  7.428779E-03
149  -999  -999  -999  -999  1.388353E-10  2.273215E-06  2.205009E-01  3.327008E-02  9.925852E-03  7.428115E-03
150  -999  -999  -999  -999  1.424280E-10  2.193736E-06  2.204872E-01  3.325760E-02  9.911075E-03  7.424411E-03
151  -999  -999  -999  -999  1.844431E-10  2.065351E-06  2.204649E-01  3.323542E-02  9.883696E-03  7.419431E-03
152  -999  -999  -999  -999  1.350558E-10  2.030835E-06  2.204559E-01  3.322750E-02  9.876427E-03  7.419320E-03
153  -999  -999  -999  -999  1.422068E-10  1.976781E-06  2.204465E-01  3.321771E-02  9.865566E-03  7.416594E-03
154  -999  -999  -999  -999  1.531839E-10  1.866524E-06  2.204280E-01  3.320043E-02  9.845596E-03  7.412876E-03
155  -999  -999  -999  -999  2.729181E-10  1.681390E-06  2.204036E-01  3.316781E-02  9.806550E-03  7.404906E-03
156  -999  -999  -999  -999  1.324127E-10  1.641768E-06  2.203937E-01  3.315934E-02  9.799751E-03  7.404642E-03
157  -999  -999  -999  -999  1.258382E-10  1.572052E-06  2.203831E-01  3.314739E-02  9.786704E-03  7.400920E-03
158  -999  -999  -999  -999  1.584379E-10  1.448211E-06  2.203629E-01  3.312525E-02  9.760359E-03  7.395900E-03
159  -999  -999  -999  -999  1.083086E-10  1.422570E-06  2.203561E-01  3.311869E-02  9.754800E-03  7.395121E-03
160  -999  -999  -999  -999  1.026080E-10  1.375128E-06  2.203480E-01  3.310975E-02  9.745298E-03  7.392358E-03
161  -999  -999  -999  -999  1.145259E-10  1.286367E-06  2.203332E-01  3.309363E-02  9.726459E-03  7.388623E-03
162  -999  -999  -999  -999  9.131981E-11  1.268507E-06  2.203286E-01  3.308981E-02  9.723102E-03  7.387862E-03
163  -999  -999  -999  -999  9.738091E-11  1.236639E-06  2.203240E-01  3.308413E-02  9.716602E-03  7.385766E-03
164  -999  -999  -999  -999  1.053196E-10  1.171282E-06  2.203138E-01  3.307290E-02  9.703735E-03  7.382720E-03
165  -999  -999  -999  -999  8.314782E-11  1.156816E-06  2.203107E-01  3.306930E-02  9.700430E-03  7.382393E-03
166  -999  -999  -999  -999  8.534337E-11  1.132443E-06  2.203053E-01  3.306438E-02  9.695328E-03  7.381585E-03
167  -999  -999  -999  -999  8.861462E-11  1.083949E-06  2.202993E-01  3.305623E-02  9.685799E-03  7.378323E-03
168  -999  -999  -999  -999  1.230984E-10  9.983294E-07  2.202867E-01  3.304000E-02  9.666852E-03  7.374224E-03
169  -999  -999  -999  -999  7.894747E-11  9.794833E-07  2.202827E-01  3.303542E-02  9.662931E-03  7.373590E-03
170  -999  -999  -999  -999  7.540712E-11  9.466628E-07  2.202779E-01  3.302903E-02  9.656160E-03  7.371438E-03
171  -999  -999  -999  -999  8.490145E-11  8.871882E-07  2.202689E-01  3.301742E-02  9.642749E-03  7.368527E-03
172  -999  -999  -999  -999  6.774233E-11  8.749297E-07  2.202658E-01  3.301494E-02  9.640619E-03  7.367991E-03
173  -999  -999  -999  -999  6.461301E-11  8.514628E-07  2.202616E-01  3.301037E-02  9.635914E-03  7.366633E-03
174  -999  -999  -999  -999  7.589720E-11  8.117020E-07  2.202563E-01  3.300262E-02  9.626739E-03  7.363964E-03
175  -999  -999  -999  -999  6.126409E-11  8.012181E-07  2.202537E-01  3.300033E-02  9.624687E-03  7.363836E-03
176  -999  -999  -999  -999  6.274230E-11  7.846075E-07  2.202502E-01  3.299656E-02  9.620817E-03  7.363201E-03
177  -999  -999  -999  -999  6.491987E-11  7.514238E-07  2.202462E-01  3.299051E-02  9.613841E-03  7.360855E-03
178  -999  -999  -999  -999  5.541197E-11  7.443113E-07  2.202443E-01  3.298878E-02  9.612257E-03  7.360789E-03
179  -999  -999  -999  -999  5.640400E-11  7.317859E-07  2.202418E-01  3.298611E-02  9.609526E-03  7.360170E-03
180  -999  -999  -999  -999  5.702844E-11  7.067642E-07  2.202388E-01  3.298163E-02  9.604394E-03  7.358414E-03
181  -999  -999  -999  -999  6.511995E-11  6.616824E-07  2.202322E-01  3.297270E-02  9.594188E-03  7.356122E-03
182  -999  -999  -999  -999  5.221003E-11  6.522182E-07  2.202301E-01  3.297046E-02  9.592204E-03  7.355649E-03
183  -999  -999  -999  -999  5.018979E-11  6.346309E-07  2.202271E-01  3.296687E-02  9.588519E-03  7.354593E-03
184  -999  -999  -999  -999  5.834244E-11  6.053690E-07  2.202234E-01  3.296096E-02  9.581567E-03  7.352472E-03
185  -999  -999  -999  -999  4.777770E-11  5.975875E-07  2.202213E-01  3.295896E-02  9.579794E-03  7.352490E-03
186  -999  -999  -999  -999  4.887352E-11  5.853371E-07  2.202188E-01  3.295630E-02  9.577049E-03  7.351907E-03
187  -999  -999  -999  -999  5.036350E-11  5.604804E-07  2.202155E-01  3.295183E-02  9.571947E-03  7.350310E-03
188  -999  -999  -999  -999  4.341870E-11  5.551846E-07  2.202143E-01  3.295045E-02  9.570684E-03  7.350192E-03
189  -999  -999  -999  -999  4.412131E-11  5.461016E-07  2.202124E-01  3.294837E-02  9.568577E-03  7.349729E-03
190  -999  -999  -999  -999  4.450425E-11  5.277884E-07  2.202103E-01  3.294493E-02  9.564662E-03  7.348364E-03
191  -999  -999  -999  -999  5.167526E-11  4.943458E-07  2.202050E-01  3.293811E-02  9.556963E-03  7.346538E-03
192  -999  -999  -999  -999  4.074520E-11  4.872416E-07  2.202035E-01  3.293641E-02  9.555471E-03  7.346307E-03
193  -999  -999  -999  -999  3.921638E-11  4.741977E-07  2.202013E-01  3.293368E-02  9.552682E-03  7.345541E-03
194  -999  -999  -999  -999  4.533274E-11  4.525258E-07  2.201978E-01  3.292916E-02  9.547436E-03  7.344331E-03
195  -999  -999  -999  -999  3.726378E-11  4.463905E-07  2.201965E-01  3.292764E-02  9.546088E-03  7.344054E-03
196  -999  -999  -999  -999  3.806032E-11  4.373660E-07  2.201949E-01  3.292557E-02  9.543974E-03  7.343526E-03
197  -999  -999  -999  -999  3.919994E-11  4.187888E-07  2.201925E-01  3.292215E-02  9.540073E-03  7.342310E-03
198  -999  -999  -999  -999  3.390962E-11  4.147335E-07  2.201914E-01  3.292106E-02  9.539133E-03  7.342232E-03
199  -999  -999  -999  -999  3.439768E-11  4.079987E-07  2.201899E-01  3.291947E-02  9.537536E-03  7.341927E-03
200  -999  -999  -999  -999  3.463284E-11  3.943034E-07  2.201883E-01  3.291686E-02  9.534574E-03  7.340892E-03
201  -999  -999  -999  -999  1.217262E-06  3.692374E-07  2.198883E-01  3.287841E-02  9.529283E-03  7.330556E-03
202  -999  -999  -999  -999  1.164429E-06  1.827300E-06  2.198934E-01  3.287708E-02  9.529228E-03  7.330765E-03
203  -999  -999  -999  -999  1.069681E-06  5.102938E-06  2.199045E-01  3.287466E-02  9.529117E-03  7.331179E-03
204  -999  -999  -999  -999  1.049433E-06  5.826298E-06  2.199070E-01  3.287413E-02  9.529092E-03  7.331270E-03
205  -999  -999  -999  -999  1.007216E-06  7.364427E-06  2.199128E-01  3.287302E-02  9.529038E-03  7.331469E-03
206  -999  -999  -999  -999  9.442846E-07  9.740494E-06  2.199227E-01  3.287130E-02  9.528950E-03  7.331799E-03
207  -999  -999  -999  -999  8.376852E-07  1.402307E-05  2.199435E-01  3.286812E-02  9.528773E-03  7.332473E-03
208  -999  -999  -999  -999  6.804344E-07  2.103032E-05  2.199844E-01  3.286197E-02  9.528422E-03  7.333910E-03
209  -999  -999  -999  -999  4.930162E-07  3.085879E-05  2.200445E-01  3.284801E-02  9.527725E-03  7.337182E-03
210  -999  -999  -999  -999  3.246824E-07  4.220549E-05  2.200593E-01  3.281123E-02  9.526349E-03  7.344044E-03
211  -999  -999  -999  -999  2.099764E-07  5.267111E-05  2.198798E-01  3.270595E-02  9.523638E-03  7.354797E-03
212  -999  -999  -999  -999  1.431624E-07  5.959136E-05  2.194376E-01  3.239024E-02  9.518385E-03  7.394015E-03
213  -999  -999  -999  -999  1.107848E-07  6.241333E-05  2.186437E-01  3.155428E-02  9.508479E-03  7.605866E-03
214  -999  -999  -999  -999  9.361361E-08  5.978368E-05  2.168078E-01  2.984035E-02  9.490835E-03  8.373895E-03
215  -999  -999  -999  -999  6.870246E-08  5.269007E-05  2.122923E-01  2.679119E-02  9.461542E-03  1.067444E-02
216  -999  -999  -999  -999  4.553667E-08  4.627559E-05  2.065265E-01  2.235728E-02  9.418634E-03  1.408603E-02
217  -999  -999  -999  -999  2.971031E-08  4.409912E-05  2.024474E-01  1.790929E-02  9.368690E-03  1.478901E-02
218  -999  -999  -999  -999  4.647018E-08  5.107904E-05  1.976921E-01  1.623093E-02  9.320677E-03  1.414209E-02
219  -999  -999  -999  -999  1.012987E-08  6.931989E-05  1.994136E-01  1.933996E-02  9.283352E-03  1.330640E-02
220  -999  -999  -999  -999  1.293605E-08  8.197294E-05  2.025836E-01  2.085001E-02  9.267739E-03  1.314194E-02
221  -999  -999  -999  -999  3.295353E-08  6.478079E-05  2.041079E-01  2.045898E-02  9.324894E-03  1.334487E-02
222  -999  -999  -999  -999  1.618859E-08  4.644466E-05  2.042434E-01  2.031933E-02  9.340185E-03  1.333494E-02
223  -999  -999  -999  -999  2.144904E-08  3.433163E-05  2.050297E-01  2.034334E-02  9.361512E-03  1.329090E-02
224  -999  -999  -999  -999  1.999973E-08  2.074117E-05  2.061366E-01  2.031907E-02  9.421647E-03  1.323064E-02
225  -999  -999  -999  -999  1.035779E-08  1.816417E-05  2.062045E-01  2.028319E-02  9.431693E-03  1.331037E-02
226  -999  -999  -999  -999  1.083046E-08  1.492158E-05  2.065832E-01  2.031395E-02  9.458535E-03  1.331767E-02
227  -999  -999  -999  -999  9.125134E-09  1.108683E-05  2.071868E-01  2.030551E-02  9.517375E-03  1.331121E-02
228  -999  -999  -999  -999  4.357312E-09  1.066766E-05  2.073170E-01  2.028859E-02  9.527351E-03  1.333383E-02
229  -999  -999  -999  -999  4.927400E-09  9.967831E-06  2.075625E-01  2.031482E-02  9.548741E-03  1.334784E-02
230  -999  -999  -999  -999  4.803809E-09  9.722192E-06  2.076449E-01  2.031562E-02  9.558594E-03  1.334940E-02
231  -999  -999  -999  -999  1.507573E-09  9.626279E-06  2.076913E-01  2.031760E-02  9.562945E-03  1.335354E-02
232  -999  -999  -999  -999  2.160618E-09  9.514829E-06  2.077623E-01  2.031150E-02  9.571184E-03  1.336180E-02
233  -999  -999  -999  -999  3.085553E-09  9.236810E-06  2.079554E-01  2.031910E-02  9.587801E-03  1.336019E-02
234  -999  -999  -999  -999  2.713672E-09  8.565726E-06  2.082877E-01  2.032852E-02  9.622183E-03  1.336730E-02
235  -999  -999  -999  -999  1.187129E-09  8.509920E-06  2.083461E-01  2.032212E-02  9.628215E-03  1.336734E-02
236  -999  -999  -999  -999  1.959255E-09  8.405080E-06  2.084792E-01  2.031504E-02  9.640521E-03  1.336873E-02
237  -999  -999  -999  -999  2.883865E-09  8.127446E-06  2.087811E-01  2.033650E-02  9.665889E-03  1.335724E-02
238  -999  -999  -999  -999  9.226459E-10  8.143681E-06  2.088171E-01  2.033719E-02  9.671300E-03  1.335858E-02
239  -999  -999  -999  -999  1.250238E-09  8.204648E-06  2.089067E-01  2.033269E-02  9.681451E-03  1.335965E-02
240  -999  -999  -999  -999  2.075851E-09  8.378320E-06  2.091486E-01  2.034710E-02  9.701372E-03  1.334508E-02
241  -999  -999  -999  -999  2.063504E-09  9.121494E-06  2.096148E-01  2.036707E-02  9.742147E-03  1.330771E-02
242  -999  -999  -999  -999  8.728980E-10  9.390018E-06  2.096629E-01  2.036524E-02  9.748923E-03  1.331567E-02
243  -999  -999  -999  -999  1.386710E-09  1.000550E-05  2.098109E-01  2.036303E-02  9.763043E-03  1.330984E-02
244  -999  -999  -999  -999  2.150444E-09  1.106257E-05  2.101632E-01  2.038655E-02  9.791876E-03  1.327406E-02
245  -999  -999  -999  -999  2.449702E-09  1.284948E-05  2.108119E-01  2.041600E-02  9.851577E-03  1.321796E-02
246  -999  -999  -999  -999  6.417971E-09  1.451745E-05  2.121654E-01  2.047818E-02  9.929295E-03  1.301941E-02
247  -999  -999  -999  -999  1.541626E-09  1.421356E-05  2.124600E-01  2.049853E-02  9.954102E-03  1.298458E-02
248  -999  -999  -999  -999  1.543128E-09  1.423193E-05  2.125309E-01  2.049782E-02  9.953109E-03  1.297691E-02
249  -999  -999  -999  -999  6.782538E-10  1.431170E-05  2.126193E-01  2.050162E-02  9.964339E-03  1.296731E-02
250  -999  -999  -999  -999  1.125800E-09  1.451001E-05  2.128261E-01  2.051408E-02  9.983223E-03  1.293838E-02
251  -999  -999  -999  -999  2.118044E-09  1.445382E-05  2.132547E-01  2.054923E-02  1.001531E-02  1.287023E-02
252  -999  -999  -999  -999  6.217724E-10  1.443549E-05  2.133180E-01  2.055332E-02  1.002249E-02  1.286098E-02
253  -999  -999  -999  -999  8.892478E-10  1.440153E-05  2.134765E-01  2.056348E-02  1.003421E-02  1.283507E-02
254  -999  -999  -999  -999  1.763492E-09  1.410531E-05  2.138052E-01  2.058911E-02  1.005652E-02  1.277973E-02
255  -999  -999  -999  -999  2.024400E-09  1.330039E-05  2.144006E-01  2.063486E-02  1.010267E-02  1.267683E-02
256  -999  -999  -999  -999  8.691975E-10  1.312458E-05  2.145248E-01  2.063774E-02  1.010721E-02  1.265660E-02
257  -999  -999  -999  -999  1.317893E-09  1.280457E-05  2.147751E-01  2.065676E-02  1.012161E-02  1.261144E-02
258  -999  -999  -999  -999  1.337566E-09  1.206497E-05  2.152298E-01  2.069151E-02  1.015366E-02  1.252835E-02
259  -999  -999  -999  -999  2.374815E-09  1.059150E-05  2.160418E-01  2.075582E-02  1.021077E-02  1.237225E-02
260  -999  -999  -999  -999  1.042980E-09  1.033045E-05  2.162086E-01  2.076421E-02  1.021559E-02  1.233757E-02
261  -999  -999  -999  -999  1.076302E-09  1.017691E-05  2.162434E-01  2.076673E-02  1.021595E-02  1.233063E-02
262  -999  -999  -999  -999  4.336381E-10  1.006663E-05  2.163034E-01  2.077120E-02  1.022042E-02  1.231926E-02
263  -999  -999  -999  -999  7.047592E-10  9.875935E-06  2.164221E-01  2.078026E-02  1.022984E-02  1.229601E-02
264  -999  -999  -999  -999  1.271823E-09  9.381550E-06  2.166718E-01  2.080256E-02  1.024653E-02  1.224491E-02
265  -999  -999  -999  -999  1.397109E-09  8.446578E-06  2.171269E-01  2.084533E-02  1.028053E-02  1.214982E-02
266  -999  -999  -999  -999  5.857938E-10  8.262292E-06  2.172166E-01  2.085068E-02  1.028503E-02  1.213182E-02
267  -999  -999  -999  -999  9.009576E-10  7.928562E-06  2.173962E-01  2.086677E-02  1.029593E-02  1.209364E-02