TITLE     = "Surface mesh and solution"
VARIABLES = "x"
"y"
"z"
"cfx"
"Cp"
ZONE T="CFD++, PW Y=-0.001"
STRANDID=0, SOLUTIONTIME=0
Nodes=406, Elements=405, ZONETYPE=FELineSeg
DATAPACKING=POINT
DT=(DOUBLE DOUBLE DOUBLE DOUBLE DOUBLE )
0.4805295200	-0.0009999500	-0.0511378530	0.0007632671	0.2343240700
0.4879702300	-0.0009999500	-0.0532644540	0.0007432290	0.2404269900
0.4953613900	-0.0009999500	-0.0553855670	0.0007234151	0.2467234700
0.5027146900	-0.0009999500	-0.0575043780	0.0007032631	0.2527208300
0.5100478500	-0.0009999500	-0.0596258790	0.0006801478	0.2587255500
0.5173741000	-0.0009999500	-0.0617538470	0.0006610322	0.2649851700
0.5246892000	-0.0009999500	-0.0638870150	0.0006431445	0.2709326400
0.5319628100	-0.0009999500	-0.0660164730	0.0006225264	0.2767578700
0.5391449300	-0.0009999500	-0.0681273270	0.0006020795	0.2825796000
0.5461880600	-0.0009999500	-0.0702052490	0.0005844724	0.2885654600
0.5530716800	-0.0009999500	-0.0722437580	0.0005659182	0.2939816400
0.5598079000	-0.0009999500	-0.0742459070	0.0005444751	0.2992684200
0.5664265200	-0.0009999500	-0.0762201700	0.0005282422	0.3052085000
0.5729595400	-0.0009999500	-0.0781758200	0.0005146757	0.3104124400
0.5794302200	-0.0009999500	-0.0801196020	0.0004929406	0.3153756600
0.5858520900	-0.0009999500	-0.0820554570	0.0004732609	0.3211197300
0.5922353900	-0.0009999500	-0.0839863490	0.0004551053	0.3261249700
0.5985838800	-0.0009999500	-0.0859133900	0.0004337311	0.3312949200
0.6048890900	-0.0009999500	-0.0878338960	0.0004124769	0.3364068900
0.6111169500	-0.0009999500	-0.0897373480	0.0003907776	0.3414805200
0.6172094300	-0.0009999500	-0.0916057380	0.0003686125	0.3464187700
0.6230798400	-0.0009999500	-0.0934120040	0.0003456988	0.3511724800
0.6286383900	-0.0009999500	-0.0951277170	0.0003229112	0.3557044000
0.6338200000	-0.0009999500	-0.0967319010	0.0002999365	0.3598637300
0.6386022600	-0.0009999500	-0.0982166010	0.0002756707	0.3638094700
0.6433777800	-0.0009999500	-0.0997031780	0.0002500081	0.3676389500
0.6480292700	-0.0009999500	-0.1011550400	0.0002231592	0.3713865900
0.6525144000	-0.0009999500	-0.1025586100	0.0001971310	0.3750475900
0.6567672500	-0.0009999500	-0.1038928000	0.0001742710	0.3785297000
0.6607462800	-0.0009999500	-0.1051440700	0.0001556998	0.3818003200
0.6644498100	-0.0009999500	-0.1063112800	0.0001411821	0.3848226100
0.6679042000	-0.0009999500	-0.1074022300	0.0001302189	0.3876649700
0.6711439500	-0.0009999500	-0.1084273800	0.0001219800	0.3902924400
0.6742005300	-0.0009999500	-0.1093963800	0.0001148944	0.3927322900
0.6771000000	-0.0009999500	-0.1103171700	0.0001082151	0.3950080900
0.6798650000	-0.0009999500	-0.1111967100	0.0001011397	0.3971654500
0.6825170500	-0.0009999500	-0.1120417000	0.0000954329	0.3993491500
0.6850785000	-0.0009999500	-0.1128590600	0.0000911532	0.4013735900
0.6875681300	-0.0009999500	-0.1136547100	0.0000845880	0.4031719300
0.6900025600	-0.0009999500	-0.1144338800	0.0000761766	0.4050219700
0.6923954500	-0.0009999500	-0.1152008500	0.0000715548	0.4071058900
0.6947550800	-0.0009999500	-0.1159582500	0.0000671362	0.4087552700
0.6970847200	-0.0009999500	-0.1167070900	0.0000576494	0.4103889200
0.6993832600	-0.0009999500	-0.1174469400	0.0000495039	0.4122759100
0.7016481200	-0.0009999500	-0.1181769800	0.0000440717	0.4140594300
0.7038787600	-0.0009999500	-0.1188969900	0.0000373144	0.4156989500
0.7060773400	-0.0009999500	-0.1196076100	0.0000276013	0.4172261700
0.7082462900	-0.0009999500	-0.1203095900	0.0000202352	0.4189900500
0.7103858600	-0.0009999500	-0.1210029900	0.0000138734	0.4205151200
0.7124934200	-0.0009999500	-0.1216869100	0.0000050634	0.4221475400
0.7145638500	-0.0009999500	-0.1223596300	-0.0000018587	0.4237420000
0.7165895100	-0.0009999500	-0.1230186700	-0.0000076797	0.4252460300
0.7185580700	-0.0009999500	-0.1236599200	-0.0000158137	0.4266568700
0.7204694700	-0.0009999500	-0.1242833200	-0.0000239130	0.4281774200
0.7223025600	-0.0009999500	-0.1248818600	-0.0000270743	0.4296164500
0.7240358600	-0.0009999500	-0.1254484800	-0.0000332224	0.4306646000
0.7256518000	-0.0009999500	-0.1259772800	-0.0000410761	0.4319465500
0.7271329200	-0.0009999500	-0.1264624400	-0.0000453895	0.4330390700
0.7284705600	-0.0009999500	-0.1269009900	-0.0000443159	0.4341773400
0.7296651000	-0.0009999500	-0.1272929600	-0.0000410839	0.4349747000
0.7306703900	-0.0009999500	-0.1276230400	-0.0000399460	0.4356607200
0.7310836300	-0.0009999500	-0.1277588200	-0.0000412832	0.4359237600
0.7317130000	-0.0009999500	-0.1279656000	-0.0000433071	0.4363194400
0.7324938800	-0.0009999500	-0.1282223500	-0.0000509434	0.4366786500
0.7332016200	-0.0009999500	-0.1284551000	-0.0000532231	0.4376671300
0.7339109800	-0.0009999500	-0.1286885100	-0.0000424085	0.4381099000
0.7345052400	-0.0009999500	-0.1288841500	-0.0000388169	0.4384636000
0.7349997800	-0.0009999500	-0.1290470100	-0.0000397057	0.4389548600
0.7350536000	-0.0009999500	-0.1290647200	-0.0000400955	0.4389606400
0.7353535900	-0.0009999500	-0.1291635500	-0.0000449824	0.4389463100
0.7357961500	-0.0009999500	-0.1293093700	-0.0000530655	0.4393338300
0.7360788000	-0.0009999500	-0.1294025300	-0.0000521651	0.4395264400
0.7364615800	-0.0009999500	-0.1295287300	-0.0000497202	0.4397156200
0.7366175700	-0.0009999500	-0.1295801600	-0.0000491555	0.4398006200
0.7370711000	-0.0009999500	-0.1297297300	-0.0000386221	0.4401271900
0.7370832000	-0.0009999500	-0.1297337100	-0.0000385289	0.4401298500
0.7370954200	-0.0009999500	-0.1297377500	-0.0000380546	0.4401367300
0.7375773800	-0.0009999500	-0.1298967300	0.0000058525	0.4405260700
0.7379117600	-0.0009999500	-0.1300070900	0.0001090975	0.4406750800
0.7381879700	-0.0009999500	-0.1300982200	0.0002981768	0.4408889100
0.7384159000	-0.0009999500	-0.1301734400	0.0005924348	0.4371511600
0.7386058000	-0.0009999500	-0.1302361300	0.0010182177	0.4369421300
0.7384058800	-0.0009999500	-0.1302300800	0.0010470563	0.4428246600
0.7381660300	-0.0009999500	-0.1302228100	0.0007622481	0.4443329900
0.7378764700	-0.0009999500	-0.1302140500	0.0006836513	0.4432614700
0.7374899400	-0.0009999500	-0.1302023100	0.0006658153	0.4424091900
0.7374501200	-0.0009999500	-0.1302011000	0.0006697507	0.4423473800
0.7369836000	-0.0009999500	-0.1301869000	0.0006851828	0.4417292200
0.7369214300	-0.0009999500	-0.1301850100	0.0006850455	0.4415861700
0.7364566900	-0.0009999500	-0.1301708200	0.0007053408	0.4411304900
0.7359232300	-0.0009999500	-0.1301544800	0.0007079684	0.4408893600
0.7357438200	-0.0009999500	-0.1301489800	0.0007065335	0.4407099500
0.7352290200	-0.0009999500	-0.1301331200	0.0007272283	0.4397042400
0.7348402100	-0.0009999500	-0.1301211300	0.0007467158	0.4399106800
0.7343444200	-0.0009999500	-0.1301057800	0.0007269979	0.4395019400
0.7340981400	-0.0009999500	-0.1300981300	0.0007269511	0.4387385000
0.7337804400	-0.0009999500	-0.1300882700	0.0007212601	0.4376681700
0.7331615100	-0.0009999500	-0.1300689900	0.0007446775	0.4378587000
0.7323595900	-0.0009999500	-0.1300439100	0.0007342889	0.4375368400
0.7314614700	-0.0009999500	-0.1300156700	0.0007180609	0.4356286800
0.7306826100	-0.0009999500	-0.1299910800	0.0007294824	0.4345288300
0.7304737000	-0.0009999500	-0.1299844800	0.0007356901	0.4342359000
0.7293823400	-0.0009999500	-0.1299497900	0.0007621448	0.4336767500
0.7281501900	-0.0009999500	-0.1299103900	0.0007602810	0.4323187800
0.7267761200	-0.0009999500	-0.1298661200	0.0007649325	0.4306525900
0.7252699700	-0.0009999500	-0.1298172000	0.0007782852	0.4294318900
0.7236439000	-0.0009999500	-0.1297639300	0.0007873301	0.4281230600
0.7219129800	-0.0009999500	-0.1297067100	0.0007959650	0.4264562700
0.7200930700	-0.0009999500	-0.1296459600	0.0008128230	0.4247166500
0.7181972900	-0.0009999500	-0.1295820800	0.0008274286	0.4238234800
0.7162359400	-0.0009999500	-0.1295153100	0.0008372297	0.4218809600
0.7142090200	-0.0009999500	-0.1294456000	0.0008515880	0.4202928500
0.7121231000	-0.0009999500	-0.1293731000	0.0008560813	0.4190931000
0.7099843000	-0.0009999500	-0.1292979900	0.0008590096	0.4173697200
0.7077977100	-0.0009999500	-0.1292203800	0.0008694859	0.4159423100
0.7055666400	-0.0009999500	-0.1291403500	0.0008806810	0.4145742700
0.7032923100	-0.0009999500	-0.1290578700	0.0008912392	0.4132599200
0.7009748200	-0.0009999500	-0.1289729200	0.0008998865	0.4117716800
0.6986151900	-0.0009999500	-0.1288854900	0.0009150328	0.4102711700
0.6962171800	-0.0009999500	-0.1287956500	0.0009326269	0.4092053800
0.6937848300	-0.0009999500	-0.1287035500	0.0009352143	0.4078620400
0.6913201800	-0.0009999500	-0.1286092100	0.0009355814	0.4062893700
0.6888223900	-0.0009999500	-0.1285125600	0.0009430732	0.4051191200
0.6862898500	-0.0009999500	-0.1284135000	0.0009529046	0.4038175300
0.6837216600	-0.0009999500	-0.1283119600	0.0009643611	0.4027195600
0.6811150300	-0.0009999500	-0.1282077900	0.0009721961	0.4014037300
0.6784586900	-0.0009999500	-0.1281004700	0.0009821345	0.4001388000
0.6757307600	-0.0009999500	-0.1279890700	0.0009938563	0.3990095900
0.6728953100	-0.0009999500	-0.1278719900	0.0010055821	0.3977637600
0.6699104900	-0.0009999500	-0.1277473300	0.0010192460	0.3965120000
0.6667379700	-0.0009999500	-0.1276132500	0.0010350860	0.3952265400
0.6633414000	-0.0009999500	-0.1274679000	0.0010536845	0.3939089500
0.6596821000	-0.0009999500	-0.1273092500	0.0010752768	0.3925289800
0.6557071800	-0.0009999500	-0.1271345000	0.0011008896	0.3910134100
0.6513217700	-0.0009999500	-0.1269388200	0.0011304755	0.3893983100
0.6463753000	-0.0009999500	-0.1267144800	0.0011636898	0.3876190500
0.6406297700	-0.0009999500	-0.1264491200	0.0011998615	0.3857404900
0.6336818900	-0.0009999500	-0.1261214300	0.0012357637	0.3837239100
0.6266827000	-0.0009999500	-0.1257838500	0.0012686070	0.3816689600
0.6199386700	-0.0009999500	-0.1254515300	0.0012965912	0.3797985300
0.6133818600	-0.0009999500	-0.1251218900	0.0013199341	0.3780199300
0.6069397300	-0.0009999500	-0.1247917800	0.0013395805	0.3763710600
0.6005413500	-0.0009999500	-0.1244578100	0.0013559005	0.3748038400
0.5941371900	-0.0009999500	-0.1241175300	0.0013702783	0.3732803500
0.5876948800	-0.0009999500	-0.1237691700	0.0013835614	0.3718287100
0.5811990500	-0.0009999500	-0.1234118100	0.0013969430	0.3704182800
0.5746415900	-0.0009999500	-0.1230448800	0.0014079269	0.3692606100
0.5680149200	-0.0009999500	-0.1226678000	0.0014217706	0.3673607400
0.5613066000	-0.0009999500	-0.1222796700	0.0014370461	0.3665602500
0.5544983700	-0.0009999500	-0.1218792300	0.0014443536	0.3652351500
0.5475692700	-0.0009999500	-0.1214649100	0.0014574309	0.3638155200
0.5404982000	-0.0009999500	-0.1210351100	0.0014657259	0.3630862800
0.5332753100	-0.0009999500	-0.1205887900	0.0014705993	0.3614035800
0.5259159200	-0.0009999500	-0.1201265000	0.0014862540	0.3607196200
0.5184596200	-0.0009999500	-0.1196503600	0.0014948151	0.3597986100
0.5109515800	-0.0009999500	-0.1191630200	0.0015028218	0.3583533500
0.5034185100	-0.0009999500	-0.1186661000	0.0015173966	0.3577065200
0.4958567000	-0.0009999500	-0.1181592800	0.0015255408	0.3568353700
0.4882403600	-0.0009999500	-0.1176406700	0.0015346459	0.3558484000
0.4805366100	-0.0009999500	-0.1171077700	0.0015467188	0.3551390800
0.4727158200	-0.0009999500	-0.1165582000	0.0015627119	0.3543507800
0.4647624500	-0.0009999500	-0.1159904000	0.0015740489	0.3539063000
0.4566888200	-0.0009999500	-0.1154047800	0.0015788001	0.3530834000
0.4485394100	-0.0009999500	-0.1148041800	0.0015928005	0.3524435500
0.4403797100	-0.0009999500	-0.1141932000	0.0016092522	0.3518351900
0.4322748200	-0.0009999500	-0.1135767300	0.0016141141	0.3516324800
0.4242598400	-0.0009999500	-0.1129576100	0.0016130038	0.3512957400
0.4163313200	-0.0009999500	-0.1123357900	0.0016236341	0.3506170500
0.4084633300	-0.0009999500	-0.1117094200	0.0016371683	0.3506645900
0.4006219500	-0.0009999500	-0.1110758600	0.0016454888	0.3502268800
0.3927789900	-0.0009999500	-0.1104327400	0.0016614647	0.3499239100
0.3849232500	-0.0009999500	-0.1097790200	0.0016684945	0.3504683400
0.3770631000	-0.0009999500	-0.1091152400	0.0016676038	0.3498904400
0.3692131000	-0.0009999500	-0.1084425100	0.0016811524	0.3498412700
0.3613756000	-0.0009999500	-0.1077609100	0.0016930360	0.3500957800
0.3535309700	-0.0009999500	-0.1070686300	0.0016958895	0.3502301900
0.3456402100	-0.0009999500	-0.1063619300	0.0016978348	0.3504826700
0.3376585200	-0.0009999500	-0.1056363700	0.0017066328	0.3505365600
0.3295534000	-0.0009999500	-0.1048883400	0.0017168058	0.3510866800
0.3213201800	-0.0009999500	-0.1041167000	0.0017245000	0.3513514700
0.3129851200	-0.0009999500	-0.1033231700	0.0017344740	0.3517443500
0.3045995500	-0.0009999500	-0.1025120300	0.0017443710	0.3524780300
0.2962333600	-0.0009999500	-0.1016897000	0.0017532439	0.3527047300
0.2879426800	-0.0009999500	-0.1008616600	0.0017672267	0.3535223000
0.2797439700	-0.0009999500	-0.1000296500	0.0017706541	0.3545837100
0.2716108300	-0.0009999500	-0.0991910620	0.0017727149	0.3547005100
0.2634932400	-0.0009999500	-0.0983406600	0.0017888583	0.3559579800
0.2553509800	-0.0009999500	-0.0974738820	0.0017931721	0.3570174900
0.2471723900	-0.0009999500	-0.0965889990	0.0017949380	0.3578608300
0.2389926500	-0.0009999500	-0.0956893560	0.0018023442	0.3587163100
0.2308804200	-0.0009999500	-0.0947823450	0.0018145670	0.3598401000
0.2228993800	-0.0009999500	-0.0938752520	0.0018219934	0.3613670800
0.2150788200	-0.0009999500	-0.0929718390	0.0018206506	0.3624979900
0.2073912000	-0.0009999500	-0.0920693800	0.0018280531	0.3632918300
0.1998365100	-0.0009999500	-0.0911682700	0.0018428613	0.3650193500
0.1922915600	-0.0009999500	-0.0902538750	0.0018455484	0.3667825500
0.1846412400	-0.0009999500	-0.0893115620	0.0018463934	0.3677502600
0.1768142100	-0.0009999500	-0.0883312820	0.0018606236	0.3692836800
0.1687956600	-0.0009999500	-0.0873095770	0.0018729231	0.3714398400
0.1606140100	-0.0009999500	-0.0862483830	0.0018759918	0.3730947400
0.1523127900	-0.0009999500	-0.0851517770	0.0018844951	0.3750096900
0.1439302000	-0.0009999500	-0.0840234680	0.0018939235	0.3772710900
0.1354878800	-0.0009999500	-0.0828652010	0.0018980861	0.3794096400
0.1269986200	-0.0009999500	-0.0816775930	0.0019065983	0.3817297500
0.1184859600	-0.0009999500	-0.0804628880	0.0019220322	0.3841023100
0.1099882400	-0.0009999500	-0.0792257490	0.0019313827	0.3870738700
0.1015597100	-0.0009999500	-0.0779736410	0.0019309241	0.3895464500
0.0932570920	-0.0009999500	-0.0767150000	0.0019412952	0.3923125600
0.0851201120	-0.0009999500	-0.0754563510	0.0019525261	0.3953746600
0.0771733220	-0.0009999500	-0.0742023290	0.0019631819	0.3980777600
0.0694235040	-0.0009999500	-0.0729550050	0.0019749611	0.4012759300
0.0618589000	-0.0009999500	-0.0717134770	0.0019820466	0.4044081000
0.0544543970	-0.0009999500	-0.0704744830	0.0019899003	0.4074708800
0.0471798590	-0.0009999500	-0.0692336480	0.0020005478	0.4104912600
0.0400122890	-0.0009999500	-0.0679874420	0.0020150166	0.4140355000
0.0329471900	-0.0009999500	-0.0667353120	0.0020225481	0.4174714400
0.0260030480	-0.0009999500	-0.0654809030	0.0020269285	0.4210214600
0.0192096270	-0.0009999500	-0.0642302560	0.0020320141	0.4246220900
0.0125919200	-0.0009999500	-0.0629889000	0.0020491004	0.4274783400
0.0061674407	-0.0009999500	-0.0617612710	0.0020603541	0.4320204000
-0.0000549169	-0.0009999500	-0.0605504360	0.0020502569	0.4356136600
-0.0060783434	-0.0009999500	-0.0593572300	0.0020595573	0.4387733000
-0.0119218520	-0.0009999500	-0.0581792180	0.0020754460	0.4429378200
-0.0176248230	-0.0009999500	-0.0570094880	0.0020826931	0.4467801500
-0.0232334700	-0.0009999500	-0.0558391620	0.0020923484	0.4506762300
-0.0287851130	-0.0009999500	-0.0546606630	0.0021000967	0.4549435400
-0.0343028420	-0.0009999500	-0.0534689840	0.0021077942	0.4585667800
-0.0397894790	-0.0009999500	-0.0522632110	0.0021238541	0.4631067200
-0.0452311670	-0.0009999500	-0.0510461140	0.0021274424	0.4680047600
-0.0506060870	-0.0009999500	-0.0498225240	0.0021276978	0.4720670900
-0.0558909250	-0.0009999500	-0.0485980030	0.0021376748	0.4767625000
-0.0610717390	-0.0009999500	-0.0473762830	0.0021464533	0.4817420500
-0.0661552400	-0.0009999500	-0.0461562800	0.0021470134	0.4868159300
-0.0711656060	-0.0009999500	-0.0449324880	0.0021428403	0.4916600600
-0.0761307030	-0.0009999500	-0.0436981360	0.0021489362	0.4969843300
-0.0810710120	-0.0009999500	-0.0424478540	0.0021526403	0.5025985800
-0.0859965910	-0.0009999500	-0.0411785950	0.0021558748	0.5077424600
-0.0909118210	-0.0009999500	-0.0398884900	0.0021640845	0.5141131900
-0.0958220660	-0.0009999500	-0.0385752880	0.0021545953	0.5205120400
-0.1007361700	-0.0009999500	-0.0372356700	0.0021435430	0.5264892000
-0.1056642600	-0.0009999500	-0.0358657500	0.0021449041	0.5334475600
-0.1106152600	-0.0009999500	-0.0344615910	0.0021406394	0.5408262000
-0.1155988600	-0.0009999500	-0.0330185960	0.0021319612	0.5484014200
-0.1206317700	-0.0009999500	-0.0315297510	0.0021270611	0.5564317100
-0.1257437900	-0.0009999500	-0.0299834910	0.0021190930	0.5655498500
-0.1309794800	-0.0009999500	-0.0283624680	0.0021060143	0.5745367400
-0.1363977000	-0.0009999500	-0.0266426650	0.0020999600	0.5852818500
-0.1420621700	-0.0009999500	-0.0247958060	0.0020763567	0.5973796800
-0.1480636700	-0.0009999500	-0.0227809900	0.0020438004	0.6100442400
-0.1541029800	-0.0009999500	-0.0206884130	0.0020185467	0.6244184400
-0.1595995900	-0.0009999500	-0.0187222590	0.0019865700	0.6386347400
-0.1646797200	-0.0009999500	-0.0168487580	0.0019517188	0.6529195300
-0.1694429700	-0.0009999500	-0.0150390680	0.0019147490	0.6668520600
-0.1739717000	-0.0009999500	-0.0132665870	0.0018806083	0.6814837500
-0.1783285400	-0.0009999500	-0.0115096750	0.0018345262	0.6967240000
-0.1825607400	-0.0009999500	-0.0097506745	0.0017803494	0.7118422400
-0.1866989900	-0.0009999500	-0.0079761622	0.0017296126	0.7282826300
-0.1907630100	-0.0009999500	-0.0061756102	0.0016704864	0.7454427500
-0.1947691300	-0.0009999500	-0.0043391855	0.0016075402	0.7635052800
-0.1987290100	-0.0009999500	-0.0024579719	0.0015380750	0.7829459300
-0.2026444400	-0.0009999500	-0.0005251090	0.0014606700	0.8031516700
-0.2065024100	-0.0009999500	0.0014593113	0.0013852468	0.8248499000
-0.2102718900	-0.0009999500	0.0034843972	0.0013068488	0.8476821200
-0.2139126100	-0.0009999500	0.0055337595	0.0012232863	0.8709479600
-0.2173894200	-0.0009999500	0.0075914040	0.0011360967	0.8948212900
-0.2206783000	-0.0009999500	0.0096427659	0.0010396275	0.9184535700
-0.2237661800	-0.0009999500	0.0116790870	0.0009263592	0.9416312600
-0.2266506700	-0.0009999500	0.0136992520	0.0007875501	0.9632135000
-0.2293470200	-0.0009999500	0.0157119970	0.0006202625	0.9823523200
-0.2318662300	-0.0009999500	0.0177258790	0.0004169297	0.9975602600
-0.2342105500	-0.0009999500	0.0197493710	0.0001767640	1.0064855000
-0.2363773700	-0.0009999500	0.0217843880	-0.0001001761	1.0080141000
-0.2383579200	-0.0009999500	0.0238262690	-0.0004077304	0.9980985500
-0.2401021300	-0.0009999500	0.0258282670	-0.0007696097	0.9726194100
-0.2417431900	-0.0009999500	0.0279645990	-0.0011434653	0.9263173900
-0.2430452100	-0.0009999500	0.0299216990	-0.0014953241	0.8555876000
-0.2441571100	-0.0009999500	0.0319020860	-0.0017677963	0.7548226700
-0.2450259300	-0.0009999500	0.0338087680	-0.0018700717	0.6221677100
-0.2456861700	-0.0009999500	0.0356910640	-0.0017178046	0.4520834100
-0.2461325400	-0.0009999500	0.0375082600	-0.0012735302	0.2569109500
-0.2463590100	-0.0009999500	0.0390574600	-0.0007035982	0.0521758720
-0.2464374600	-0.0009999500	0.0404892300	0.0001762235	-0.1267496900
-0.2463848000	-0.0009999500	0.0419862310	0.0013813131	-0.3113483800
-0.2462019300	-0.0009999500	0.0434120450	0.0027390172	-0.5278456200
-0.2458891600	-0.0009999500	0.0448030790	0.0042456124	-0.7270056000
-0.2454307500	-0.0009999500	0.0462194490	0.0052552426	-0.9201712600
-0.2448770900	-0.0009999500	0.0475204030	0.0067130122	-1.0845407000
-0.2441584800	-0.0009999500	0.0488650240	0.0082579836	-1.2035364000
-0.2431567900	-0.0009999500	0.0503822570	0.0093198803	-1.3291187000
-0.2419157600	-0.0009999500	0.0519202090	0.0103524670	-1.4127847000
-0.2404549400	-0.0009999500	0.0534250660	0.0109383480	-1.4653581000
-0.2387808600	-0.0009999500	0.0548818740	0.0113006880	-1.4817033000
-0.2368813600	-0.0009999500	0.0562987770	0.0112191350	-1.4759760000
-0.2348416000	-0.0009999500	0.0576194860	0.0108155450	-1.4594721000
-0.2324224600	-0.0009999500	0.0589822900	0.0107232130	-1.4262962000
-0.2299054400	-0.0009999500	0.0602225920	0.0102977720	-1.3928765000
-0.2272180900	-0.0009999500	0.0613935780	0.0099014826	-1.3584445000
-0.2243703200	-0.0009999500	0.0624928590	0.0095368765	-1.3111291000
-0.2213666300	-0.0009999500	0.0635236430	0.0092322097	-1.2713906000
-0.2182004000	-0.0009999500	0.0644937600	0.0088485734	-1.2330734000
-0.2148560300	-0.0009999500	0.0654072990	0.0085282808	-1.1906476000
-0.2113192400	-0.0009999500	0.0662672300	0.0082237081	-1.1541615000
-0.2075927100	-0.0009999500	0.0670737250	0.0079243949	-1.1157570000
-0.2036990800	-0.0009999500	0.0678210180	0.0076320814	-1.0805850000
-0.1996714300	-0.0009999500	0.0685035140	0.0074145579	-1.0426383000
-0.1955450600	-0.0009999500	0.0691195580	0.0072364187	-1.0109501000
-0.1913395700	-0.0009999500	0.0696704240	0.0069763171	-0.9820231200
-0.1870505400	-0.0009999500	0.0701596740	0.0067719605	-0.9485508800
-0.1826598200	-0.0009999500	0.0705923070	0.0065885455	-0.9236879900
-0.1781512200	-0.0009999500	0.0709719210	0.0063901605	-0.8963168300
-0.1735249300	-0.0009999500	0.0712987330	0.0062146622	-0.8711297500
-0.1688012600	-0.0009999500	0.0715721850	0.0060698848	-0.8457547400
-0.1640085300	-0.0009999500	0.0717927960	0.0059668416	-0.8219344600
-0.1591557100	-0.0009999500	0.0719621850	0.0058120472	-0.8022036600
-0.1542114900	-0.0009999500	0.0720825200	0.0056553967	-0.7786584500
-0.1490976700	-0.0009999500	0.0721554160	0.0055233158	-0.7582511900
-0.1436922600	-0.0009999500	0.0721795780	0.0053850193	-0.7368978300
-0.1378387700	-0.0009999500	0.0721481960	0.0052447171	-0.7158342000
-0.1313465400	-0.0009999500	0.0720479640	0.0051348609	-0.6925400500
-0.1248537200	-0.0009999500	0.0718838270	0.0050346772	-0.6721950800
-0.1188970900	-0.0009999500	0.0716805230	0.0048899340	-0.6544837400
-0.1133168100	-0.0009999500	0.0714467540	0.0047822647	-0.6347790400
-0.1080078100	-0.0009999500	0.0711875260	0.0046955880	-0.6206278200
-0.1028836700	-0.0009999500	0.0709049400	0.0045910936	-0.6064733900
-0.0978757290	-0.0009999500	0.0705992430	0.0045078951	-0.5918757900
-0.0929285290	-0.0009999500	0.0702696960	0.0044254299	-0.5795821000
-0.0879950670	-0.0009999500	0.0699148480	0.0043757881	-0.5656397900
-0.0830330630	-0.0009999500	0.0695325960	0.0043221477	-0.5544279800
-0.0780059770	-0.0009999500	0.0691203180	0.0042315968	-0.5418664200
-0.0728892090	-0.0009999500	0.0686756600	0.0041613980	-0.5276883800
-0.0676769610	-0.0009999500	0.0681976230	0.0040700241	-0.5171956400
-0.0623833650	-0.0009999500	0.0676871460	0.0039876043	-0.5034108800
-0.0570350660	-0.0009999500	0.0671467410	0.0039104474	-0.4922998000
-0.0516581830	-0.0009999500	0.0665792300	0.0038559471	-0.4795688700
-0.0462644030	-0.0009999500	0.0659862830	0.0038051209	-0.4684724500
-0.0408409350	-0.0009999500	0.0653669390	0.0037357494	-0.4565546500
-0.0353511120	-0.0009999500	0.0647171810	0.0036740379	-0.4440873600
-0.0297598240	-0.0009999500	0.0640325170	0.0035799097	-0.4337000500
-0.0240562730	-0.0009999500	0.0633109580	0.0034989204	-0.4205582400
-0.0182535110	-0.0009999500	0.0625535700	0.0034307510	-0.4095290600
-0.0123855050	-0.0009999500	0.0617645200	0.0033732621	-0.3974719000
-0.0064877705	-0.0009999500	0.0609487440	0.0033225479	-0.3860175300
-0.0005829011	-0.0009999500	0.0601097900	0.0032340939	-0.3759785900
0.0053212005	-0.0009999500	0.0592493410	0.0031807144	-0.3627034700
0.0112329870	-0.0009999500	0.0583667350	0.0031446046	-0.3519279100
0.0171793920	-0.0009999500	0.0574583370	0.0030666481	-0.3417935100
0.0232048480	-0.0009999500	0.0565173440	0.0029973454	-0.3295366200
0.0293634270	-0.0009999500	0.0555347610	0.0029399080	-0.3186535200
0.0357120930	-0.0009999500	0.0545004200	0.0028670123	-0.3079210800
0.0422903970	-0.0009999500	0.0534063610	0.0028031215	-0.2954178200
0.0491082780	-0.0009999500	0.0522492010	0.0027567858	-0.2835270500
0.0561467150	-0.0009999500	0.0510304500	0.0026876618	-0.2722452900
0.0633647440	-0.0009999500	0.0497558190	0.0026344166	-0.2586837100
0.0707111140	-0.0009999500	0.0484335240	0.0025887831	-0.2469934200
0.0781352970	-0.0009999500	0.0470723700	0.0025169012	-0.2352464200
0.0855967180	-0.0009999500	0.0456799230	0.0024532376	-0.2223167100
0.0930772870	-0.0009999500	0.0442599650	0.0023961288	-0.2102501800
0.1005867200	-0.0009999500	0.0428111290	0.0023387148	-0.1984284800
0.1081540900	-0.0009999500	0.0413280840	0.0022841909	-0.1865331500
0.1158113000	-0.0009999500	0.0398045330	0.0022238508	-0.1750077000
0.1235774500	-0.0009999500	0.0382364240	0.0021732932	-0.1627900200
0.1314527800	-0.0009999500	0.0366234150	0.0021255979	-0.1510724400
0.1394261900	-0.0009999500	0.0349675420	0.0020663005	-0.1395427400
0.1474861800	-0.0009999500	0.0332710260	0.0020113179	-0.1276633700
0.1556249600	-0.0009999500	0.0315354390	0.0019658032	-0.1158218200
0.1638336500	-0.0009999500	0.0297627240	0.0019202239	-0.1041950100
0.1720945100	-0.0009999500	0.0279568380	0.0018709805	-0.0930393710
0.1803740600	-0.0009999500	0.0261254050	0.0018248942	-0.0815887450
0.1886333200	-0.0009999500	0.0242776370	0.0017804560	-0.0703209560
0.1968472300	-0.0009999500	0.0224199690	0.0017389784	-0.0593905370
0.2050121300	-0.0009999500	0.0205540820	0.0016968580	-0.0489241030
0.2131402500	-0.0009999500	0.0186779650	0.0016622374	-0.0382879860
0.2212455400	-0.0009999500	0.0167890840	0.0016286431	-0.0280157140
0.2293331000	-0.0009999500	0.0148868530	0.0015955806	-0.0178121460
0.2373956100	-0.0009999500	0.0129735440	0.0015632954	-0.0080019133
0.2454331700	-0.0009999500	0.0110496930	0.0015215377	0.0014383030
0.2534285500	-0.0009999500	0.0091200201	0.0014841555	0.0113461700
0.2613698200	-0.0009999500	0.0071880710	0.0014557384	0.0207735990
0.2692577800	-0.0009999500	0.0052542915	0.0014226645	0.0296783170
0.2771052100	-0.0009999500	0.0033161340	0.0013865629	0.0385829880
0.2849304400	-0.0009999500	0.0013695493	0.0013544324	0.0473661870
0.2927488700	-0.0009999500	-0.0005889099	0.0013277862	0.0560925980
0.3005660200	-0.0009999500	-0.0025603331	0.0013048386	0.0647475050
0.3083796800	-0.0009999500	-0.0045438935	0.0012747376	0.0728026400
0.3161887200	-0.0009999500	-0.0065390165	0.0012508953	0.0814904940
0.3240019100	-0.0009999500	-0.0085476907	0.0012288498	0.0897029120
0.3318446600	-0.0009999500	-0.0105763070	0.0011972598	0.0975131020
0.3397515400	-0.0009999500	-0.0126337980	0.0011653372	0.1056088300
0.3477466100	-0.0009999500	-0.0147265560	0.0011432470	0.1139523800
0.3558268000	-0.0009999500	-0.0168539510	0.0011225905	0.1217008500
0.3639522500	-0.0009999500	-0.0190056000	0.0010943218	0.1294351800
0.3720667700	-0.0009999500	-0.0211664870	0.0010690247	0.1376991000
0.3801276100	-0.0009999500	-0.0233248860	0.0010453328	0.1453113700
0.3881183000	-0.0009999500	-0.0254759530	0.0010208016	0.1527899100
0.3960476800	-0.0009999500	-0.0276216380	0.0009952066	0.1599167400
0.4039324800	-0.0009999500	-0.0297660900	0.0009748702	0.1674382200
0.4117822100	-0.0009999500	-0.0319116040	0.0009570258	0.1744990300
0.4195942300	-0.0009999500	-0.0340571810	0.0009332027	0.1812181800
0.4273598500	-0.0009999500	-0.0362001770	0.0009130351	0.1887268900
0.4350735500	-0.0009999500	-0.0383387580	0.0008924754	0.1953281500
0.4427365400	-0.0009999500	-0.0404729840	0.0008669652	0.2018297200
0.4503567800	-0.0009999500	-0.0426048230	0.0008439095	0.2086992300
0.4579450200	-0.0009999500	-0.0447370670	0.0008224747	0.2150735400
0.4655070600	-0.0009999500	-0.0468711700	0.0008033201	0.2216060500
0.4730387900	-0.0009999500	-0.0490058400	0.0007826278	0.2278329900
0.4805295200	-0.0009999500	-0.0511378530	0.0007632671	0.2343240700
1 2 
2 3 
3 4 
4 5 
5 6 
6 7 
7 8 
8 9 
9 10 
10 11 
11 12 
12 13 
13 14 
14 15 
15 16 
16 17 
17 18 
18 19 
19 20 
20 21 
21 22 
22 23 
23 24 
24 25 
25 26 
26 27 
27 28 
28 29 
29 30 
30 31 
31 32 
32 33 
33 34 
34 35 
35 36 
36 37 
37 38 
38 39 
39 40 
40 41 
41 42 
42 43 
43 44 
44 45 
45 46 
46 47 
47 48 
48 49 
49 50 
50 51 
51 52 
52 53 
53 54 
54 55 
55 56 
56 57 
57 58 
58 59 
59 60 
60 61 
61 62 
62 63 
63 64 
64 65 
65 66 
66 67 
67 68 
68 69 
69 70 
70 71 
71 72 
72 73 
73 74 
74 75 
75 76 
76 77 
77 78 
78 79 
79 80 
80 81 
81 82 
82 83 
83 84 
84 85 
85 86 
86 87 
87 88 
88 89 
89 90 
90 91 
91 92 
92 93 
93 94 
94 95 
95 96 
96 97 
97 98 
98 99 
99 100 
100 101 
101 102 
102 103 
103 104 
104 105 
105 106 
106 107 
107 108 
108 109 
109 110 
110 111 
111 112 
112 113 
113 114 
114 115 
115 116 
116 117 
117 118 
118 119 
119 120 
120 121 
121 122 
122 123 
123 124 
124 125 
125 126 
126 127 
127 128 
128 129 
129 130 
130 131 
131 132 
132 133 
133 134 
134 135 
135 136 
136 137 
137 138 
138 139 
139 140 
140 141 
141 142 
142 143 
143 144 
144 145 
145 146 
146 147 
147 148 
148 149 
149 150 
150 151 
151 152 
152 153 
153 154 
154 155 
155 156 
156 157 
157 158 
158 159 
159 160 
160 161 
161 162 
162 163 
163 164 
164 165 
165 166 
166 167 
167 168 
168 169 
169 170 
170 171 
171 172 
172 173 
173 174 
174 175 
175 176 
176 177 
177 178 
178 179 
179 180 
180 181 
181 182 
182 183 
183 184 
184 185 
185 186 
186 187 
187 188 
188 189 
189 190 
190 191 
191 192 
192 193 
193 194 
194 195 
195 196 
196 197 
197 198 
198 199 
199 200 
200 201 
201 202 
202 203 
203 204 
204 205 
205 206 
206 207 
207 208 
208 209 
209 210 
210 211 
211 212 
212 213 
213 214 
214 215 
215 216 
216 217 
217 218 
218 219 
219 220 
220 221 
221 222 
222 223 
223 224 
224 225 
225 226 
226 227 
227 228 
228 229 
229 230 
230 231 
231 232 
232 233 
233 234 
234 235 
235 236 
236 237 
237 238 
238 239 
239 240 
240 241 
241 242 
242 243 
243 244 
244 245 
245 246 
246 247 
247 248 
248 249 
249 250 
250 251 
251 252 
252 253 
253 254 
254 255 
255 256 
256 257 
257 258 
258 259 
259 260 
260 261 
261 262 
262 263 
263 264 
264 265 
265 266 
266 267 
267 268 
268 269 
269 270 
270 271 
271 272 
272 273 
273 274 
274 275 
275 276 
276 277 
277 278 
278 279 
279 280 
280 281 
281 282 
282 283 
283 284 
284 285 
285 286 
286 287 
287 288 
288 289 
289 290 
290 291 
291 292 
292 293 
293 294 