VARIABLES= iterations rms_res_mf1 rms_res_mf2 rms_res_mf3 rms_res_mf4 rms_res_mf5 rms_res_trb1 CL CD CDv CM
ZONE T = "USM3D-ME, HeldenMesh_R"
1  -999  -999  -999  -999  5.162836E-08  3.125175E-05  -5.455276E-02  1.478738E+00  1.478738E+00  2.593868E-04
2  -999  -999  -999  -999  4.206371E-08  1.701607E-05  5.349415E-01  1.742868E+00  1.458903E+00  -1.507968E-01
3  -999  -999  -999  -999  3.061665E-08  8.334116E-06  1.242050E+00  2.061890E+00  1.420897E+00  -3.283627E-01
4  -999  -999  -999  -999  2.179821E-08  4.009147E-06  1.722874E+00  2.243319E+00  1.350434E+00  -4.475698E-01
5  -999  -999  -999  -999  1.637911E-08  2.000325E-06  1.787727E+00  2.151977E+00  1.227651E+00  -4.636001E-01
6  -999  -999  -999  -999  1.193519E-08  1.084442E-06  1.713296E+00  1.919315E+00  1.037538E+00  -4.432396E-01
7  -999  -999  -999  -999  8.478554E-09  6.101662E-07  1.692613E+00  1.660053E+00  7.944547E-01  -4.355412E-01
8  -999  -999  -999  -999  5.897586E-09  3.508790E-07  1.691653E+00  1.401210E+00  5.505401E-01  -4.331014E-01
9  -999  -999  -999  -999  4.132630E-09  2.037583E-07  1.658215E+00  1.137754E+00  3.569615E-01  -4.286366E-01
10  -999  -999  -999  -999  3.238261E-09  1.182370E-07  1.522552E+00  9.055250E-01  2.405826E-01  -4.161969E-01
11  -999  -999  -999  -999  1.563817E-08  7.209905E-08  1.307444E+00  6.048184E-01  1.687434E-01  -3.399182E-01
12  -999  -999  -999  -999  3.252703E-08  5.548010E-08  1.187526E+00  4.701766E-01  1.428773E-01  -2.790133E-01
13  -999  -999  -999  -999  2.218807E-08  4.547893E-08  1.134299E+00  4.175121E-01  1.256438E-01  -2.544074E-01
14  -999  -999  -999  -999  2.697812E-08  3.875072E-08  1.037723E+00  3.440574E-01  1.102829E-01  -2.149436E-01
15  -999  -999  -999  -999  3.047332E-08  3.222427E-08  9.406875E-01  2.658742E-01  9.491281E-02  -1.676676E-01
16  -999  -999  -999  -999  2.807581E-08  2.896939E-08  8.079525E-01  1.743928E-01  7.119866E-02  -9.793665E-02
17  -999  -999  -999  -999  3.772303E-09  3.006974E-08  4.301758E-01  9.721361E-02  6.095330E-02  3.632207E-02
18  -999  -999  -999  -999  1.168408E-08  3.060389E-08  2.161472E-01  5.514865E-02  5.815338E-02  9.654242E-02
19  -999  -999  -999  -999  8.326029E-09  3.100087E-08  1.659105E-01  4.391779E-02  5.701390E-02  1.120514E-01
20  -999  -999  -999  -999  1.102649E-08  3.168573E-08  8.658761E-02  2.852320E-02  5.525671E-02  1.318105E-01
21  -999  -999  -999  -999  1.654978E-08  3.332683E-08  -1.789317E-02  7.278133E-03  5.292976E-02  1.548617E-01
22  -999  -999  -999  -999  2.167727E-08  3.620098E-08  -7.507627E-02  -5.851885E-03  5.001138E-02  1.640863E-01
23  -999  -999  -999  -999  2.549186E-08  4.217355E-08  -1.088923E-01  -1.570467E-02  4.551142E-02  1.648799E-01
24  -999  -999  -999  -999  2.584129E-08  5.500235E-08  -1.199120E-01  -2.262822E-02  3.924885E-02  1.564519E-01
25  -999  -999  -999  -999  2.436782E-08  6.390494E-08  -1.101130E-01  -2.445178E-02  3.507517E-02  1.436083E-01
26  -999  -999  -999  -999  1.790066E-08  7.179894E-08  -7.478852E-02  -2.058941E-02  3.262411E-02  1.150077E-01
27  -999  -999  -999  -999  1.153270E-08  7.370023E-08  2.965812E-02  -9.169161E-03  3.031329E-02  6.533318E-02
28  -999  -999  -999  -999  1.327798E-08  5.770209E-08  1.768363E-01  9.295952E-03  2.883816E-02  3.323745E-02
29  -999  -999  -999  -999  1.406146E-08  5.202890E-08  2.503756E-01  1.904101E-02  2.795073E-02  2.846088E-03
30  -999  -999  -999  -999  2.257344E-08  4.848156E-08  3.414850E-01  3.291591E-02  2.716431E-02  -2.033394E-02
31  -999  -999  -999  -999  2.429239E-08  4.898423E-08  3.669764E-01  3.607654E-02  2.618332E-02  -2.617499E-02
32  -999  -999  -999  -999  1.964013E-08  4.719060E-08  3.939340E-01  3.979211E-02  2.578187E-02  -2.851551E-02
33  -999  -999  -999  -999  2.127908E-08  5.043205E-08  4.108869E-01  4.127682E-02  2.540572E-02  -2.652708E-02
34  -999  -999  -999  -999  2.123059E-08  5.712565E-08  4.111258E-01  4.078766E-02  2.500796E-02  -2.095766E-02
35  -999  -999  -999  -999  2.115684E-08  6.386144E-08  4.036428E-01  3.961360E-02  2.465743E-02  -1.551420E-02
36  -999  -999  -999  -999  1.755915E-08  6.212213E-08  3.783017E-01  3.678554E-02  2.435100E-02  -2.574475E-03
37  -999  -999  -999  -999  1.686706E-08  6.744297E-08  3.355587E-01  3.119496E-02  2.383487E-02  1.116677E-02
38  -999  -999  -999  -999  1.489599E-08  7.259738E-08  2.983874E-01  2.539807E-02  2.311321E-02  2.121857E-02
39  -999  -999  -999  -999  1.383089E-08  7.318648E-08  2.751723E-01  2.215965E-02  2.251343E-02  2.659725E-02
40  -999  -999  -999  -999  1.062652E-08  6.707643E-08  2.239931E-01  1.694221E-02  2.195225E-02  3.684975E-02
41  -999  -999  -999  -999  8.774326E-09  6.913739E-08  1.917298E-01  1.495423E-02  2.130032E-02  4.074883E-02
42  -999  -999  -999  -999  7.678348E-09  7.606053E-08  1.779046E-01  1.471672E-02  2.076622E-02  4.073587E-02
43  -999  -999  -999  -999  4.871076E-09  7.748491E-08  1.591469E-01  1.638034E-02  2.030655E-02  3.731162E-02
44  -999  -999  -999  -999  3.672738E-09  9.774560E-08  2.272821E-01  2.878557E-02  1.966217E-02  1.095064E-02
45  -999  -999  -999  -999  1.936902E-09  1.128844E-07  2.458698E-01  3.072086E-02  1.920803E-02  9.797482E-03
46  -999  -999  -999  -999  1.528887E-09  1.158364E-07  2.986857E-01  3.749333E-02  1.887512E-02  -1.798686E-03
47  -999  -999  -999  -999  6.598960E-09  1.434636E-07  2.649237E-01  3.479970E-02  1.834723E-02  9.218738E-03
48  -999  -999  -999  -999  6.069528E-09  1.586844E-07  2.646895E-01  3.451620E-02  1.784970E-02  9.112520E-03
49  -999  -999  -999  -999  5.737779E-09  1.692417E-07  2.646697E-01  3.473922E-02  1.754552E-02  8.814223E-03
50  -999  -999  -999  -999  4.159972E-09  1.526038E-07  2.654194E-01  3.544773E-02  1.723175E-02  7.746323E-03
51  -999  -999  -999  -999  3.941813E-09  1.726894E-07  2.673720E-01  3.557600E-02  1.693534E-02  6.810153E-03
52  -999  -999  -999  -999  4.055619E-09  1.943952E-07  2.707330E-01  3.594746E-02  1.671690E-02  5.874898E-03
53  -999  -999  -999  -999  3.252142E-09  1.767647E-07  2.767678E-01  3.668170E-02  1.653426E-02  4.616550E-03
54  -999  -999  -999  -999  3.709784E-09  2.107700E-07  2.823476E-01  3.794793E-02  1.626226E-02  3.771269E-03
55  -999  -999  -999  -999  3.973815E-09  2.495195E-07  2.832561E-01  3.767445E-02  1.602805E-02  4.055043E-03
56  -999  -999  -999  -999  3.178677E-09  2.236063E-07  2.828018E-01  3.698478E-02  1.588460E-02  4.578264E-03
57  -999  -999  -999  -999  3.616948E-09  2.656502E-07  2.803455E-01  3.511220E-02  1.565916E-02  6.507763E-03
58  -999  -999  -999  -999  4.261534E-09  3.216940E-07  2.776594E-01  3.384220E-02  1.542314E-02  7.605857E-03
59  -999  -999  -999  -999  3.422396E-09  2.832439E-07  2.755992E-01  3.330508E-02  1.532165E-02  8.482407E-03
60  -999  -999  -999  -999  3.054056E-09  3.206109E-07  2.732748E-01  3.256517E-02  1.515367E-02  9.070798E-03
61  -999  -999  -999  -999  3.169936E-09  3.791197E-07  2.714498E-01  3.147426E-02  1.494501E-02  9.850115E-03
62  -999  -999  -999  -999  2.263159E-09  3.307386E-07  2.712492E-01  3.137580E-02  1.488067E-02  9.866130E-03
63  -999  -999  -999  -999  1.599638E-09  3.650915E-07  2.709190E-01  3.036471E-02  1.477369E-02  1.004975E-02
64  -999  -999  -999  -999  1.069463E-09  4.382588E-07  2.670441E-01  2.694881E-02  1.463128E-02  1.114531E-02
65  -999  -999  -999  -999  3.796819E-09  4.916859E-07  2.647715E-01  2.623730E-02  1.451413E-02  1.118122E-02
66  -999  -999  -999  -999  3.020775E-09  3.912595E-07  2.646564E-01  2.603798E-02  1.443509E-02  1.115535E-02
67  -999  -999  -999  -999  2.847734E-09  4.248068E-07  2.641078E-01  2.576357E-02  1.431800E-02  1.113609E-02
68  -999  -999  -999  -999  3.117554E-09  4.667059E-07  2.636342E-01  2.545068E-02  1.418427E-02  1.094815E-02
69  -999  -999  -999  -999  2.575852E-09  3.650979E-07  2.610302E-01  2.485150E-02  1.412880E-02  1.104021E-02
70  -999  -999  -999  -999  3.075431E-09  3.839141E-07  2.579212E-01  2.368520E-02  1.403644E-02  1.139796E-02
71  -999  -999  -999  -999  3.443277E-09  4.084602E-07  2.564574E-01  2.279837E-02  1.390861E-02  1.179668E-02
72  -999  -999  -999  -999  3.500538E-09  4.338262E-07  2.552397E-01  2.243087E-02  1.379922E-02  1.196021E-02
73  -999  -999  -999  -999  3.047612E-09  3.090498E-07  2.530140E-01  2.234276E-02  1.372884E-02  1.221004E-02
74  -999  -999  -999  -999  3.229566E-09  3.188365E-07  2.511479E-01  2.238915E-02  1.363245E-02  1.218515E-02
75  -999  -999  -999  -999  3.525180E-09  3.344130E-07  2.498866E-01  2.254364E-02  1.351525E-02  1.196366E-02
76  -999  -999  -999  -999  3.703169E-09  3.483975E-07  2.495033E-01  2.267343E-02  1.343634E-02  1.174070E-02
77  -999  -999  -999  -999  3.344309E-09  2.337129E-07  2.487672E-01  2.289611E-02  1.334696E-02  1.123345E-02
78  -999  -999  -999  -999  3.679361E-09  2.456853E-07  2.484579E-01  2.282235E-02  1.325204E-02  1.088183E-02
79  -999  -999  -999  -999  3.735804E-09  2.643588E-07  2.482778E-01  2.272404E-02  1.318786E-02  1.073996E-02
80  -999  -999  -999  -999  3.351365E-09  2.047015E-07  2.477973E-01  2.268180E-02  1.311880E-02  1.035621E-02
81  -999  -999  -999  -999  3.463238E-09  2.198796E-07  2.478284E-01  2.292117E-02  1.303144E-02  1.008609E-02
82  -999  -999  -999  -999  3.454917E-09  2.428449E-07  2.477007E-01  2.305411E-02  1.295653E-02  9.939926E-03
83  -999  -999  -999  -999  2.952771E-09  2.010511E-07  2.476904E-01  2.341616E-02  1.289827E-02  9.687424E-03
84  -999  -999  -999  -999  2.869980E-09  2.178908E-07  2.473462E-01  2.384486E-02  1.281688E-02  9.525420E-03
85  -999  -999  -999  -999  2.797058E-09  2.464677E-07  2.469108E-01  2.409380E-02  1.273376E-02  9.347324E-03
86  -999  -999  -999  -999  2.214165E-09  2.101059E-07  2.466811E-01  2.463367E-02  1.268757E-02  9.223350E-03
87  -999  -999  -999  -999  2.200517E-09  2.309895E-07  2.459441E-01  2.488419E-02  1.261384E-02  9.092965E-03
88  -999  -999  -999  -999  2.034812E-09  2.638544E-07  2.452231E-01  2.499798E-02  1.252157E-02  8.973076E-03
89  -999  -999  -999  -999  1.537707E-09  2.346994E-07  2.447495E-01  2.530325E-02  1.248474E-02  8.879273E-03
90  -999  -999  -999  -999  1.388623E-09  2.617173E-07  2.438432E-01  2.554795E-02  1.241693E-02  8.724629E-03
91  -999  -999  -999  -999  1.116155E-09  3.089467E-07  2.442396E-01  2.617490E-02  1.231987E-02  8.191706E-03
92  -999  -999  -999  -999  6.616908E-10  2.906073E-07  2.451071E-01  2.658799E-02  1.229142E-02  7.815747E-03
93  -999  -999  -999  -999  2.807662E-10  3.696737E-07  2.470959E-01  2.688969E-02  1.224138E-02  7.157055E-03
94  -999  -999  -999  -999  1.303902E-09  4.738991E-07  2.461579E-01  2.723264E-02  1.217367E-02  7.462254E-03
95  -999  -999  -999  -999  1.323630E-09  4.914301E-07  2.460471E-01  2.739427E-02  1.208914E-02  7.458852E-03
96  -999  -999  -999  -999  1.010842E-09  3.889149E-07  2.452386E-01  2.746217E-02  1.205227E-02  7.561710E-03
97  -999  -999  -999  -999  1.014262E-09  4.188337E-07  2.452871E-01  2.751826E-02  1.199220E-02  7.748355E-03
98  -999  -999  -999  -999  1.155789E-09  4.512716E-07  2.454751E-01  2.769631E-02  1.191957E-02  7.663441E-03
99  -999  -999  -999  -999  9.181949E-10  3.769076E-07  2.457190E-01  2.765702E-02  1.189594E-02  7.555136E-03
100  -999  -999  -999  -999  9.713132E-10  4.057596E-07  2.461451E-01  2.776603E-02  1.185449E-02  7.536164E-03
101  -999  -999  -999  -999  1.140728E-09  4.366441E-07  2.456278E-01  2.730480E-02  1.179138E-02  7.902708E-03
102  -999  -999  -999  -999  1.183928E-09  4.616898E-07  2.453726E-01  2.712984E-02  1.173302E-02  8.063560E-03
103  -999  -999  -999  -999  1.018792E-09  3.548346E-07  2.446432E-01  2.695628E-02  1.170314E-02  8.202373E-03
104  -999  -999  -999  -999  8.640073E-10  3.715200E-07  2.440530E-01  2.669756E-02  1.165930E-02  8.382443E-03
105  -999  -999  -999  -999  8.717806E-10  4.069019E-07  2.433665E-01  2.645063E-02  1.161625E-02  8.604007E-03
106  -999  -999  -999  -999  5.662672E-10  3.426013E-07  2.427542E-01  2.621294E-02  1.159664E-02  8.861501E-03
107  -999  -999  -999  -999  1.233004E-10  4.098709E-07  2.421496E-01  2.578707E-02  1.157444E-02  8.989062E-03
108  -999  -999  -999  -999  2.975395E-10  4.121933E-07  2.416243E-01  2.535469E-02  1.156736E-02  9.068340E-03
109  -999  -999  -999  -999  8.876972E-10  4.810234E-07  2.406003E-01  2.500386E-02  1.155112E-02  9.251744E-03
110  -999  -999  -999  -999  9.735489E-10  4.646743E-07  2.406741E-01  2.487658E-02  1.152233E-02  9.200045E-03
111  -999  -999  -999  -999  1.026352E-09  4.391769E-07  2.402514E-01  2.473037E-02  1.148396E-02  9.258701E-03
112  -999  -999  -999  -999  1.071279E-09  4.366594E-07  2.391011E-01  2.456091E-02  1.144817E-02  9.433455E-03
113  -999  -999  -999  -999  8.783252E-10  2.873518E-07  2.380343E-01  2.437767E-02  1.142847E-02  9.683357E-03
114  -999  -999  -999  -999  1.122554E-09  3.028934E-07  2.365238E-01  2.407674E-02  1.140165E-02  9.782904E-03
115  -999  -999  -999  -999  1.219091E-09  3.222649E-07  2.362599E-01  2.403218E-02  1.137277E-02  9.739739E-03
116  -999  -999  -999  -999  1.019357E-09  2.455880E-07  2.358837E-01  2.386864E-02  1.135682E-02  9.767124E-03
117  -999  -999  -999  -999  1.097575E-09  2.557691E-07  2.355310E-01  2.382835E-02  1.133147E-02  9.751272E-03
118  -999  -999  -999  -999  1.183782E-09  2.745702E-07  2.352525E-01  2.388073E-02  1.129772E-02  9.742338E-03
119  -999  -999  -999  -999  9.383959E-10  2.211464E-07  2.347950E-01  2.395280E-02  1.128530E-02  9.673579E-03
120  -999  -999  -999  -999  1.069209E-09  2.323108E-07  2.346115E-01  2.402877E-02  1.126355E-02  9.520387E-03
121  -999  -999  -999  -999  1.167440E-09  2.477026E-07  2.345661E-01  2.395415E-02  1.122905E-02  9.374492E-03
122  -999  -999  -999  -999  1.174151E-09  2.672475E-07  2.345325E-01  2.397740E-02  1.120515E-02  9.312678E-03
123  -999  -999  -999  -999  9.937976E-10  2.014302E-07  2.345135E-01  2.404552E-02  1.118443E-02  9.257066E-03
124  -999  -999  -999  -999  9.953143E-10  2.137998E-07  2.341843E-01  2.408412E-02  1.115704E-02  9.265701E-03
125  -999  -999  -999  -999  1.010072E-09  2.349938E-07  2.338809E-01  2.416379E-02  1.112906E-02  9.278466E-03
126  -999  -999  -999  -999  8.095253E-10  1.901905E-07  2.334147E-01  2.435855E-02  1.111251E-02  9.285460E-03
127  -999  -999  -999  -999  8.168887E-10  2.044777E-07  2.329201E-01  2.452393E-02  1.108671E-02  9.293587E-03
128  -999  -999  -999  -999  7.995135E-10  2.229306E-07  2.326591E-01  2.453317E-02  1.105398E-02  9.293503E-03
129  -999  -999  -999  -999  5.853178E-10  1.869664E-07  2.322781E-01  2.455630E-02  1.104068E-02  9.263780E-03
130  -999  -999  -999  -999  5.607561E-10  2.072879E-07  2.322321E-01  2.463522E-02  1.101842E-02  9.197377E-03
131  -999  -999  -999  -999  5.097619E-10  2.296416E-07  2.322074E-01  2.476093E-02  1.098631E-02  9.060714E-03
132  -999  -999  -999  -999  3.242781E-10  2.040826E-07  2.322508E-01  2.488841E-02  1.097576E-02  9.004676E-03
133  -999  -999  -999  -999  2.107100E-10  2.507495E-07  2.326308E-01  2.500313E-02  1.095978E-02  8.804022E-03
134  -999  -999  -999  -999  9.445277E-11  2.494283E-07  2.326705E-01  2.502834E-02  1.095537E-02  8.780207E-03
135  -999  -999  -999  -999  8.253589E-11  3.034383E-07  2.324877E-01  2.511640E-02  1.094620E-02  8.862911E-03
136  -999  -999  -999  -999  3.963727E-10  3.934051E-07  2.318738E-01  2.529060E-02  1.092796E-02  9.046698E-03
137  -999  -999  -999  -999  4.119604E-10  3.552964E-07  2.316630E-01  2.536931E-02  1.090247E-02  9.107011E-03
138  -999  -999  -999  -999  4.497240E-10  3.285049E-07  2.311988E-01  2.531469E-02  1.086949E-02  9.289546E-03
139  -999  -999  -999  -999  3.711698E-10  2.344335E-07  2.311169E-01  2.529795E-02  1.085902E-02  9.261404E-03
140  -999  -999  -999  -999  3.536841E-10  2.390698E-07  2.312507E-01  2.530606E-02  1.084208E-02  9.229206E-03
141  -999  -999  -999  -999  4.187551E-10  2.509020E-07  2.313136E-01  2.522857E-02  1.081922E-02  9.258878E-03
142  -999  -999  -999  -999  3.220571E-10  1.999963E-07  2.311490E-01  2.524700E-02  1.081172E-02  9.319557E-03
143  -999  -999  -999  -999  2.862848E-10  2.105604E-07  2.308419E-01  2.509949E-02  1.079909E-02  9.464928E-03
144  -999  -999  -999  -999  3.221697E-10  2.332243E-07  2.303813E-01  2.493617E-02  1.078142E-02  9.619628E-03
145  -999  -999  -999  -999  2.114010E-10  2.005859E-07  2.302659E-01  2.489477E-02  1.077608E-02  9.681540E-03
146  -999  -999  -999  -999  1.013897E-10  2.223380E-07  2.297971E-01  2.470457E-02  1.076666E-02  9.809320E-03
147  -999  -999  -999  -999  1.361341E-10  2.638251E-07  2.295219E-01  2.459746E-02  1.075390E-02  9.842680E-03
148  -999  -999  -999  -999  1.430309E-10  2.416452E-07  2.293475E-01  2.458373E-02  1.074984E-02  9.874167E-03
149  -999  -999  -999  -999  2.558698E-10  2.599431E-07  2.289915E-01  2.447090E-02  1.074223E-02  9.940236E-03
150  -999  -999  -999  -999  3.125864E-10  2.620915E-07  2.286876E-01  2.433079E-02  1.072791E-02  9.990282E-03
151  -999  -999  -999  -999  3.496525E-10  2.657440E-07  2.284615E-01  2.427995E-02  1.071137E-02  1.001633E-02
152  -999  -999  -999  -999  2.681245E-10  2.035705E-07  2.281251E-01  2.422390E-02  1.070557E-02  1.008462E-02
153  -999  -999  -999  -999  3.027599E-10  2.103449E-07  2.277715E-01  2.415804E-02  1.069568E-02  1.011867E-02
154  -999  -999  -999  -999  3.627798E-10  2.242102E-07  2.275400E-01  2.411281E-02  1.068115E-02  1.012356E-02
155  -999  -999  -999  -999  2.769764E-10  1.857884E-07  2.274151E-01  2.407033E-02  1.067667E-02  1.013440E-02
156  -999  -999  -999  -999  3.358011E-10  1.907910E-07  2.272455E-01  2.397877E-02  1.066852E-02  1.013159E-02
157  -999  -999  -999  -999  3.761681E-10  2.031901E-07  2.271195E-01  2.396256E-02  1.065486E-02  1.015132E-02
158  -999  -999  -999  -999  3.830447E-10  2.255168E-07  2.269871E-01  2.395048E-02  1.064283E-02  1.015231E-02
159  -999  -999  -999  -999  3.290315E-10  1.735935E-07  2.268115E-01  2.398599E-02  1.063603E-02  1.015001E-02
160  -999  -999  -999  -999  3.671793E-10  1.835218E-07  2.266949E-01  2.398764E-02  1.062520E-02  1.011633E-02
161  -999  -999  -999  -999  4.006524E-10  2.041704E-07  2.266008E-01  2.398120E-02  1.061128E-02  1.010012E-02
162  -999  -999  -999  -999  3.154802E-10  1.669873E-07  2.264809E-01  2.400178E-02  1.060618E-02  1.008660E-02
163  -999  -999  -999  -999  3.437493E-10  1.735092E-07  2.263834E-01  2.400109E-02  1.059693E-02  1.007980E-02
164  -999  -999  -999  -999  3.432618E-10  1.888422E-07  2.262473E-01  2.399151E-02  1.058282E-02  1.007479E-02
165  -999  -999  -999  -999  3.584755E-10  2.088461E-07  2.261669E-01  2.400848E-02  1.057147E-02  1.008213E-02
166  -999  -999  -999  -999  3.025259E-10  1.577506E-07  2.260422E-01  2.403416E-02  1.056309E-02  1.010706E-02
167  -999  -999  -999  -999  3.013207E-10  1.668520E-07  2.258243E-01  2.404497E-02  1.055148E-02  1.010422E-02
168  -999  -999  -999  -999  3.018028E-10  1.837669E-07  2.257269E-01  2.405813E-02  1.053813E-02  1.010148E-02
169  -999  -999  -999  -999  2.380789E-10  1.449124E-07  2.256426E-01  2.409861E-02  1.053185E-02  1.008908E-02
170  -999  -999  -999  -999  2.347140E-10  1.513994E-07  2.255923E-01  2.413382E-02  1.052156E-02  1.006025E-02
171  -999  -999  -999  -999  2.324513E-10  1.641906E-07  2.255853E-01  2.414403E-02  1.050746E-02  1.004356E-02
172  -999  -999  -999  -999  1.645494E-10  1.348481E-07  2.254838E-01  2.415618E-02  1.050257E-02  1.003249E-02
173  -999  -999  -999  -999  1.527601E-10  1.428876E-07  2.254192E-01  2.417104E-02  1.049400E-02  1.001193E-02
174  -999  -999  -999  -999  1.590250E-10  1.605302E-07  2.253328E-01  2.421518E-02  1.048237E-02  1.001086E-02
175  -999  -999  -999  -999  1.071851E-10  1.406657E-07  2.253110E-01  2.421001E-02  1.047842E-02  9.997633E-03
176  -999  -999  -999  -999  7.189100E-11  1.596582E-07  2.252516E-01  2.428002E-02  1.047146E-02  1.000043E-02
177  -999  -999  -999  -999  3.955470E-11  1.561417E-07  2.252059E-01  2.427004E-02  1.046983E-02  9.991110E-03
178  -999  -999  -999  -999  1.770731E-11  1.776686E-07  2.251125E-01  2.426219E-02  1.046643E-02  1.001892E-02
179  -999  -999  -999  -999  5.177127E-11  2.255397E-07  2.249926E-01  2.430904E-02  1.046015E-02  1.005809E-02
180  -999  -999  -999  -999  1.315942E-10  2.701473E-07  2.248252E-01  2.430785E-02  1.045098E-02  1.010683E-02
181  -999  -999  -999  -999  1.417884E-10  2.697110E-07  2.246008E-01  2.429409E-02  1.043895E-02  1.017077E-02
182  -999  -999  -999  -999  1.031383E-10  1.986876E-07  2.246036E-01  2.427981E-02  1.043411E-02  1.020233E-02
183  -999  -999  -999  -999  9.433105E-11  2.098390E-07  2.244113E-01  2.426391E-02  1.042674E-02  1.022656E-02
184  -999  -999  -999  -999  1.045096E-10  2.265192E-07  2.243985E-01  2.424427E-02  1.041904E-02  1.023745E-02
185  -999  -999  -999  -999  7.007078E-11  1.878357E-07  2.244051E-01  2.423307E-02  1.041538E-02  1.023537E-02
186  -999  -999  -999  -999  5.318216E-11  2.096505E-07  2.242970E-01  2.420530E-02  1.040955E-02  1.028370E-02
187  -999  -999  -999  -999  3.031678E-11  2.355986E-07  2.241829E-01  2.417169E-02  1.040363E-02  1.030341E-02
188  -999  -999  -999  -999  9.227815E-12  2.168898E-07  2.241069E-01  2.415560E-02  1.040079E-02  1.032198E-02
189  -999  -999  -999  -999  4.604919E-11  2.567262E-07  2.240019E-01  2.411723E-02  1.039572E-02  1.033965E-02
190  -999  -999  -999  -999  1.207064E-10  2.823993E-07  2.238607E-01  2.407124E-02  1.038744E-02  1.035237E-02
191  -999  -999  -999  -999  1.254128E-10  2.604516E-07  2.237862E-01  2.405273E-02  1.037641E-02  1.036604E-02
192  -999  -999  -999  -999  1.012643E-10  1.668570E-07  2.237100E-01  2.404086E-02  1.037267E-02  1.038261E-02
193  -999  -999  -999  -999  9.739308E-11  1.664568E-07  2.235438E-01  2.399300E-02  1.036671E-02  1.041797E-02
194  -999  -999  -999  -999  1.465011E-10  1.732275E-07  2.233810E-01  2.394777E-02  1.035895E-02  1.043481E-02
195  -999  -999  -999  -999  1.101790E-10  1.310878E-07  2.233336E-01  2.393047E-02  1.035588E-02  1.043534E-02
196  -999  -999  -999  -999  1.078313E-10  1.323124E-07  2.233187E-01  2.393395E-02  1.035070E-02  1.042175E-02
197  -999  -999  -999  -999  1.421302E-10  1.371717E-07  2.232202E-01  2.393584E-02  1.034286E-02  1.041462E-02
198  -999  -999  -999  -999  1.494805E-10  1.425403E-07  2.231889E-01  2.391588E-02  1.033550E-02  1.041938E-02
199  -999  -999  -999  -999  1.169447E-10  9.511604E-08  2.231405E-01  2.389789E-02  1.033077E-02  1.043239E-02
200  -999  -999  -999  -999  1.237176E-10  9.990242E-08  2.230814E-01  2.389396E-02  1.032476E-02  1.043248E-02
201  -999  -999  -999  -999  1.333461E-10  1.076728E-07  2.230267E-01  2.389824E-02  1.031773E-02  1.042976E-02
202  -999  -999  -999  -999  1.039243E-10  8.344530E-08  2.229611E-01  2.390107E-02  1.031429E-02  1.043593E-02
203  -999  -999  -999  -999  1.125253E-10  8.927579E-08  2.228596E-01  2.389153E-02  1.030900E-02  1.043702E-02
204  -999  -999  -999  -999  1.241391E-10  9.595540E-08  2.228128E-01  2.388632E-02  1.030141E-02  1.043851E-02
205  -999  -999  -999  -999  9.257909E-11  7.900519E-08  2.227744E-01  2.388410E-02  1.029879E-02  1.044422E-02
206  -999  -999  -999  -999  9.639938E-11  8.502107E-08  2.227189E-01  2.387950E-02  1.029425E-02  1.043373E-02
207  -999  -999  -999  -999  1.036755E-10  8.976726E-08  2.227052E-01  2.389399E-02  1.028705E-02  1.042409E-02
208  -999  -999  -999  -999  1.043861E-10  9.665974E-08  2.226809E-01  2.389813E-02  1.028091E-02  1.042494E-02
209  -999  -999  -999  -999  8.052326E-11  7.365564E-08  2.226158E-01  2.389724E-02  1.027698E-02  1.042662E-02
210  -999  -999  -999  -999  8.318888E-11  8.070816E-08  2.225759E-01  2.388878E-02  1.027164E-02  1.042974E-02
211  -999  -999  -999  -999  9.321155E-11  8.918933E-08  2.225246E-01  2.389285E-02  1.026588E-02  1.043315E-02
212  -999  -999  -999  -999  7.535648E-11  7.452544E-08  2.224902E-01  2.389537E-02  1.026287E-02  1.042729E-02
213  -999  -999  -999  -999  6.345544E-11  7.838945E-08  2.224616E-01  2.389939E-02  1.025792E-02  1.043235E-02
214  -999  -999  -999  -999  7.468694E-11  8.658804E-08  2.223937E-01  2.389089E-02  1.025280E-02  1.043691E-02
215  -999  -999  -999  -999  5.281312E-11  7.488910E-08  2.223707E-01  2.388408E-02  1.025034E-02  1.043737E-02
216  -999  -999  -999  -999  4.712223E-11  8.225063E-08  2.223409E-01  2.390271E-02  1.024635E-02  1.043297E-02
217  -999  -999  -999  -999  5.619216E-11  9.201783E-08  2.222612E-01  2.389493E-02  1.024161E-02  1.044320E-02
218  -999  -999  -999  -999  3.703451E-11  8.020605E-08  2.222539E-01  2.389881E-02  1.023973E-02  1.043836E-02
219  -999  -999  -999  -999  2.919167E-11  8.957988E-08  2.222165E-01  2.391279E-02  1.023640E-02  1.043992E-02
220  -999  -999  -999  -999  2.894153E-11  1.032588E-07  2.221524E-01  2.390463E-02  1.023225E-02  1.045222E-02
221  -999  -999  -999  -999  1.630697E-11  9.299335E-08  2.221349E-01  2.390767E-02  1.023073E-02  1.045224E-02
222  -999  -999  -999  -999  1.002626E-11  1.077805E-07  2.220813E-01  2.389344E-02  1.022787E-02  1.046538E-02
223  -999  -999  -999  -999  8.383756E-12  1.244548E-07  2.220199E-01  2.389092E-02  1.022324E-02  1.047722E-02
224  -999  -999  -999  -999  1.376478E-11  1.310217E-07  2.219540E-01  2.387823E-02  1.021740E-02  1.048677E-02
225  -999  -999  -999  -999  1.143920E-11  1.055755E-07  2.219548E-01  2.388185E-02  1.021516E-02  1.047968E-02
226  -999  -999  -999  -999  2.071247E-11  1.183588E-07  2.219043E-01  2.387041E-02  1.021151E-02  1.049083E-02
227  -999  -999  -999  -999  3.562193E-11  1.231214E-07  2.218524E-01  2.385958E-02  1.020581E-02  1.049601E-02
228  -999  -999  -999  -999  4.275104E-11  1.205780E-07  2.217844E-01  2.384473E-02  1.019889E-02  1.051130E-02
229  -999  -999  -999  -999  3.159587E-11  7.344285E-08  2.217756E-01  2.383684E-02  1.019574E-02  1.051085E-02
230  -999  -999  -999  -999  3.224235E-11  7.397965E-08  2.217364E-01  2.383603E-02  1.019146E-02  1.050742E-02
231  -999  -999  -999  -999  4.297663E-11  7.822792E-08  2.216865E-01  2.382096E-02  1.018691E-02  1.051562E-02
232  -999  -999  -999  -999  3.244954E-11  5.686027E-08  2.216813E-01  2.381607E-02  1.018440E-02  1.051713E-02
233  -999  -999  -999  -999  3.383621E-11  5.898786E-08  2.216674E-01  2.381329E-02  1.018077E-02  1.051410E-02
234  -999  -999  -999  -999  4.640607E-11  6.390629E-08  2.216297E-01  2.380245E-02  1.017641E-02  1.051716E-02
235  -999  -999  -999  -999  3.479987E-11  4.874094E-08  2.216018E-01  2.379840E-02  1.017458E-02  1.051764E-02
236  -999  -999  -999  -999  3.239967E-11  5.055756E-08  2.215920E-01  2.379438E-02  1.017162E-02  1.051909E-02
237  -999  -999  -999  -999  4.363008E-11  5.541199E-08  2.215481E-01  2.379292E-02  1.016754E-02  1.051905E-02
238  -999  -999  -999  -999  3.365804E-11  4.482516E-08  2.215404E-01  2.378358E-02  1.016620E-02  1.052122E-02
239  -999  -999  -999  -999  3.192831E-11  4.652128E-08  2.215227E-01  2.378121E-02  1.016385E-02  1.052329E-02
240  -999  -999  -999  -999  3.768283E-11  5.039354E-08  2.214963E-01  2.378162E-02  1.016016E-02  1.052002E-02
241  -999  -999  -999  -999  2.775605E-11  4.243138E-08  2.214794E-01  2.377987E-02  1.015916E-02  1.051876E-02
242  -999  -999  -999  -999  2.914074E-11  4.418539E-08  2.214486E-01  2.377042E-02  1.015730E-02  1.052274E-02
243  -999  -999  -999  -999  3.592701E-11  4.748357E-08  2.214318E-01  2.376734E-02  1.015416E-02  1.052324E-02
244  -999  -999  -999  -999  3.859564E-11  5.225921E-08  2.214199E-01  2.376287E-02  1.015074E-02  1.052321E-02
245  -999  -999  -999  -999  2.935300E-11  3.997756E-08  2.213962E-01  2.376179E-02  1.014927E-02  1.052478E-02
246  -999  -999  -999  -999  3.202576E-11  4.275142E-08  2.213679E-01  2.375871E-02  1.014690E-02  1.052440E-02
247  -999  -999  -999  -999  3.979126E-11  4.794424E-08  2.213373E-01  2.375637E-02  1.014361E-02  1.052805E-02
248  -999  -999  -999  -999  3.225866E-11  3.929031E-08  2.213285E-01  2.375352E-02  1.014251E-02  1.052880E-02
249  -999  -999  -999  -999  3.073735E-11  4.110561E-08  2.213015E-01  2.374839E-02  1.014056E-02  1.052885E-02
250  -999  -999  -999  -999  3.380628E-11  4.479236E-08  2.212982E-01  2.374720E-02  1.013748E-02  1.052748E-02
251  -999  -999  -999  -999  2.431424E-11  3.793537E-08  2.212807E-01  2.375168E-02  1.013664E-02  1.052683E-02
252  -999  -999  -999  -999  2.712130E-11  3.962378E-08  2.212531E-01  2.374381E-02  1.013506E-02  1.052610E-02
253  -999  -999  -999  -999  3.254331E-11  4.269039E-08  2.212377E-01  2.373988E-02  1.013237E-02  1.052795E-02
254  -999  -999  -999  -999  3.460197E-11  4.736937E-08  2.212254E-01  2.373914E-02  1.012952E-02  1.052950E-02
255  -999  -999  -999  -999  2.619213E-11  3.643787E-08  2.211991E-01  2.373584E-02  1.012825E-02  1.053106E-02
256  -999  -999  -999  -999  2.772260E-11  3.878123E-08  2.211803E-01  2.373818E-02  1.012613E-02  1.052952E-02
257  -999  -999  -999  -999  3.053475E-11  4.304846E-08  2.211607E-01  2.373961E-02  1.012324E-02  1.052982E-02
258  -999  -999  -999  -999  2.291248E-11  3.502220E-08  2.211434E-01  2.374070E-02  1.012228E-02  1.053298E-02
259  -999  -999  -999  -999  2.435193E-11  3.686338E-08  2.211175E-01  2.373316E-02  1.012055E-02  1.053418E-02
260  -999  -999  -999  -999  2.703906E-11  4.030385E-08  2.211086E-01  2.373065E-02  1.011786E-02  1.053307E-02
261  -999  -999  -999  -999  1.950915E-11  3.426642E-08  2.210957E-01  2.373309E-02  1.011712E-02  1.053343E-02
262  -999  -999  -999  -999  1.944445E-11  3.571472E-08  2.210813E-01  2.372946E-02  1.011573E-02  1.053114E-02
263  -999  -999  -999  -999  2.320779E-11  3.895265E-08  2.210705E-01  2.373172E-02  1.011336E-02  1.053044E-02
264  -999  -999  -999  -999  2.662355E-11  4.341979E-08  2.210556E-01  2.372841E-02  1.011076E-02  1.053232E-02
265  -999  -999  -999  -999  2.090759E-11  3.339493E-08  2.210444E-01  2.372740E-02  1.010962E-02  1.053267E-02
266  -999  -999  -999  -999  1.846161E-11  3.547541E-08  2.210268E-01  2.372564E-02  1.010774E-02  1.053570E-02
267  -999  -999  -999  -999  2.395124E-11  3.978935E-08  2.209895E-01  2.372264E-02  1.010518E-02  1.053790E-02