TITLE     = "Surface mesh and solution"
VARIABLES = "x"
"y"
"z"
"cfx"
"Cp"
ZONE T="Slice: Y=-0.001"
STRANDID=0, SOLUTIONTIME=0
Nodes=384, Elements=383, ZONETYPE=FELineSeg
DATAPACKING=POINT
DT=(DOUBLE DOUBLE DOUBLE DOUBLE DOUBLE )
0.1734999000	-0.0009999500	0.0422595520	0.0020397407	-0.0350226090
0.1805353200	-0.0009999500	0.0413296520	0.0020043282	-0.0287017040
0.1895170200	-0.0009999500	0.0401202810	0.0019571572	-0.0205422360
0.1965588000	-0.0009999500	0.0391574460	0.0019246129	-0.0141664080
0.2059159300	-0.0009999500	0.0378555060	0.0018774922	-0.0058458154
0.2133454700	-0.0009999500	0.0368065130	0.0018458939	0.0007570598
0.2230208500	-0.0009999500	0.0354172210	0.0018002571	0.0092472788
0.2309141000	-0.0009999500	0.0342675710	0.0017691338	0.0160629620
0.2409156600	-0.0009999500	0.0327877960	0.0017211261	0.0247525740
0.2490609100	-0.0009999500	0.0315656360	0.0016892279	0.0316508260
0.2591579900	-0.0009999500	0.0300289750	0.0016443069	0.0403280930
0.2666036800	-0.0009999500	0.0288817360	0.0016143569	0.0469077150
0.2766091500	-0.0009999500	0.0273191130	0.0015700414	0.0554333930
0.2840382500	-0.0009999500	0.0261471680	0.0015411567	0.0620680230
0.2945693700	-0.0009999500	0.0244617460	0.0014981272	0.0709262640
0.3037416600	-0.0009999500	0.0229788140	0.0014696391	0.0782095570
0.3153364700	-0.0009999500	0.0210770150	0.0014239789	0.0876263830
0.3253016800	-0.0009999500	0.0194232950	0.0013949396	0.0955552530
0.3376403700	-0.0009999500	0.0173483380	0.0013496870	0.1054045800
0.3481170500	-0.0009999500	0.0155648640	0.0013185591	0.1136361200
0.3611622500	-0.0009999500	0.0133163560	0.0012716696	0.1237764900
0.3720193200	-0.0009999500	0.0114225160	0.0012388653	0.1323043900
0.3855989000	-0.0009999500	0.0090247663	0.0011924800	0.1427796800
0.3973716200	-0.0009999500	0.0069218008	0.0011613000	0.1516303600
0.4116448200	-0.0009999500	0.0043415418	0.0011154818	0.1623648600
0.4238261600	-0.0009999500	0.0021136748	0.0010848952	0.1715312200
0.4385801000	-0.0009999500	-0.0006161029	0.0010402778	0.1824736600
0.4516439400	-0.0009999500	-0.0030616822	0.0010097976	0.1919774000
0.4671374900	-0.0009999500	-0.0059950566	0.0009644702	0.2032416200
0.4807096100	-0.0009999500	-0.0085948287	0.0009330388	0.2132642600
0.4969354300	-0.0009999500	-0.0117391000	0.0008879486	0.2250877200
0.5119305300	-0.0009999500	-0.0146784270	0.0008540811	0.2359369800
0.5294026700	-0.0009999500	-0.0181463190	0.0008057298	0.2485203300
0.5463386200	-0.0009999500	-0.0215505990	0.0007652058	0.2601604200
0.5636869100	-0.0009999500	-0.0250788240	0.0007105169	0.2728022300
0.5791568200	-0.0009999500	-0.0282695950	0.0006650354	0.2838896500
0.5947303200	-0.0009999500	-0.0315096600	0.0006128992	0.2956118000
0.6062769900	-0.0009999500	-0.0339447070	0.0005757564	0.3047793500
0.6189253900	-0.0009999500	-0.0366265290	0.0005350810	0.3148922600
0.6289967900	-0.0009999500	-0.0387890530	0.0005085464	0.3226693300
0.6390447600	-0.0009999500	-0.0409534720	0.0004731357	0.3309254100
0.6447100000	-0.0009999500	-0.0421849860	0.0004428434	0.3370706100
0.6514135600	-0.0009999500	-0.0436442230	0.0003886536	0.3430737000
0.6542745800	-0.0009999500	-0.0442712720	0.0003774121	0.3455303900
0.6602855900	-0.0009999500	-0.0455919730	0.0003671963	0.3508377400
0.6635826800	-0.0009999500	-0.0463199210	0.0003582736	0.3539083300
0.6687197700	-0.0009999500	-0.0474556540	0.0003438137	0.3586735700
0.6719741200	-0.0009999500	-0.0481785910	0.0003353352	0.3617177600
0.6761228400	-0.0009999500	-0.0491011890	0.0003220391	0.3656472600
0.6788322900	-0.0009999500	-0.0497061720	0.0003154650	0.3684326400
0.6821551900	-0.0009999500	-0.0504489280	0.0003029303	0.3716916400
0.6847000100	-0.0009999500	-0.0510195900	0.0002954177	0.3742456100
0.6875159700	-0.0009999500	-0.0516517010	0.0002839428	0.3770392500
0.6898425800	-0.0009999500	-0.0521754250	0.0002747921	0.3793462500
0.6923159400	-0.0009999500	-0.0527328590	0.0002627229	0.3818170100
0.6943261600	-0.0009999500	-0.0531869010	0.0002524859	0.3839398300
0.6966434100	-0.0009999500	-0.0537110010	0.0002409029	0.3862804200
0.6988146300	-0.0009999500	-0.0542029590	0.0002305910	0.3884793200
0.7011600700	-0.0009999500	-0.0547355230	0.0002186398	0.3909223400
0.7035179100	-0.0009999500	-0.0552715770	0.0002100949	0.3933425200
0.7059157500	-0.0009999500	-0.0558179020	0.0001974249	0.3958543200
0.7082640500	-0.0009999500	-0.0563535910	0.0001883899	0.3983636500
0.7106393000	-0.0009999500	-0.0568967500	0.0001746757	0.4008832300
0.7130445200	-0.0009999500	-0.0574473070	0.0001637762	0.4035044300
0.7153721500	-0.0009999500	-0.0579813380	0.0001498553	0.4060119400
0.7177794600	-0.0009999500	-0.0585342980	0.0001380822	0.4085852200
0.7198190100	-0.0009999500	-0.0590038780	0.0001237189	0.4107514600
0.7223854100	-0.0009999500	-0.0595955330	0.0001206714	0.4136822500
0.7240835400	-0.0009999500	-0.0599919370	0.0001310305	0.4156566000
0.7254741800	-0.0009999500	-0.0603115260	0.0001084564	0.4171908500
0.7285209900	-0.0009999500	-0.0610166120	0.0000834517	0.4206797500
0.7297127800	-0.0009999500	-0.0612950440	0.0000838188	0.4220695800
0.7309195400	-0.0009999500	-0.0615737810	0.0000650088	0.4233483100
0.7336081900	-0.0009999500	-0.0621982480	0.0000495815	0.4263587600
0.7347427000	-0.0009999500	-0.0624645760	0.0000532485	0.4276794800
0.7361112800	-0.0009999500	-0.0627834280	0.0000338026	0.4290725900
0.7387437800	-0.0009999500	-0.0633968790	0.0000009096	0.4316734700
0.7402550000	-0.0009999500	-0.0637487100	-0.0000291239	0.4330550700
0.7413231700	-0.0009999500	-0.0639983270	-0.0000368860	0.4339782300
0.7427846800	-0.0009999500	-0.0643422530	-0.0000405535	0.4354776700
0.7440253500	-0.0009999500	-0.0646328400	0.0000142964	0.4368850000
0.7451688100	-0.0009999500	-0.0649022390	0.0000941015	0.4381478100
0.7461198000	-0.0009999500	-0.0651260540	0.0002716015	0.4381373200
0.7471460100	-0.0009999500	-0.0653668050	0.0003524632	0.4390343700
0.7460918400	-0.0009999500	-0.0654257980	0.0003915641	0.4362717000
0.7449560200	-0.0009999500	-0.0654901860	0.0003609342	0.4347777400
0.7429657600	-0.0009999500	-0.0656030100	0.0002927199	0.4313286500
0.7417624600	-0.0009999500	-0.0656698720	0.0002579817	0.4291946600
0.7399724700	-0.0009999500	-0.0657682640	0.0002930350	0.4265177000
0.7374085200	-0.0009999500	-0.0659090280	0.0003707418	0.4222438300
0.7349553700	-0.0009999500	-0.0660456640	0.0003854059	0.4185725700
0.7320889800	-0.0009999500	-0.0662007260	0.0004170764	0.4143005000
0.7285043000	-0.0009999500	-0.0663925410	0.0004690433	0.4094950900
0.7236715600	-0.0009999500	-0.0666483120	0.0005082700	0.4036871200
0.7184920300	-0.0009999500	-0.0669220090	0.0005351415	0.3974126000
0.7151172200	-0.0009999500	-0.0670962780	0.0005529745	0.3928006900
0.7081573000	-0.0009999500	-0.0674523190	0.0005722878	0.3858661900
0.7048269500	-0.0009999500	-0.0676188170	0.0005904796	0.3825885700
0.6964352100	-0.0009999500	-0.0680236820	0.0006711008	0.3743174700
0.6881046300	-0.0009999500	-0.0684207830	0.0007205417	0.3668106800
0.6770745500	-0.0009999500	-0.0689256190	0.0007801512	0.3578924800
0.6661657100	-0.0009999500	-0.0694129910	0.0008342922	0.3492968400
0.6526728900	-0.0009999500	-0.0699776710	0.0008969207	0.3400127600
0.6371437300	-0.0009999500	-0.0706092040	0.0009512926	0.3302638200
0.6198287000	-0.0009999500	-0.0712531880	0.0010094025	0.3201929600
0.6026676300	-0.0009999500	-0.0718612150	0.0010530208	0.3116558500
0.5841159800	-0.0009999500	-0.0724616270	0.0011053533	0.3022119400
0.5700351000	-0.0009999500	-0.0728856250	0.0011475811	0.2953455700
0.5522174800	-0.0009999500	-0.0733810140	0.0012003548	0.2872126100
0.5388372500	-0.0009999500	-0.0737218930	0.0012365165	0.2813517200
0.5218448000	-0.0009999500	-0.0741211180	0.0012838771	0.2742283000
0.5084623100	-0.0009999500	-0.0744046120	0.0013149008	0.2688666600
0.4921794500	-0.0009999500	-0.0747189670	0.0013588435	0.2625712800
0.4791949700	-0.0009999500	-0.0749415010	0.0013877531	0.2577264600
0.4636000400	-0.0009999500	-0.0751790110	0.0014277872	0.2521190000
0.4508822900	-0.0009999500	-0.0753462170	0.0014553012	0.2477355600
0.4357639800	-0.0009999500	-0.0755156580	0.0014937160	0.2427181200
0.4236199000	-0.0009999500	-0.0756268280	0.0015203049	0.2387939200
0.4090375900	-0.0009999500	-0.0757319410	0.0015565238	0.2342670300
0.3971407400	-0.0009999500	-0.0757933330	0.0015823558	0.2307104800
0.3830240100	-0.0009999500	-0.0758384090	0.0016187876	0.2266633400
0.3715068700	-0.0009999500	-0.0758515070	0.0016443694	0.2235094900
0.3580667100	-0.0009999500	-0.0758405030	0.0016782023	0.2199122900
0.3472815500	-0.0009999500	-0.0758095610	0.0017030303	0.2170980300
0.3342136100	-0.0009999500	-0.0757456870	0.0017366882	0.2138855500
0.3233595500	-0.0009999500	-0.0756700040	0.0017615115	0.2113361100
0.3106496900	-0.0009999500	-0.0755544980	0.0017935248	0.2084910400
0.3000610800	-0.0009999500	-0.0754355190	0.0018180751	0.2062169600
0.2877351000	-0.0009999500	-0.0752697590	0.0018497868	0.2037514600
0.2776111400	-0.0009999500	-0.0751121790	0.0018718109	0.2018087200
0.2657753200	-0.0009999500	-0.0749003960	0.0019019459	0.1997057800
0.2553135500	-0.0009999500	-0.0746896940	0.0019227140	0.1980828000
0.2439449300	-0.0009999500	-0.0744352120	0.0019523778	0.1963392800
0.2351326900	-0.0009999500	-0.0742170210	0.0019734853	0.1950831100
0.2244818500	-0.0009999500	-0.0739309420	0.0020017392	0.1937198200
0.2160568400	-0.0009999500	-0.0736845880	0.0020229125	0.1927585000
0.2057797500	-0.0009999500	-0.0733622090	0.0020502752	0.1916976700
0.1977314700	-0.0009999500	-0.0730901060	0.0020708111	0.1909480100
0.1878159300	-0.0009999500	-0.0727333650	0.0020950019	0.1901145600
0.1799355000	-0.0009999500	-0.0724301340	0.0021158627	0.1895576400
0.1703318800	-0.0009999500	-0.0720390680	0.0021408002	0.1889697500
0.1627608200	-0.0009999500	-0.0717115550	0.0021605469	0.1886298700
0.1536038200	-0.0009999500	-0.0712945910	0.0021827993	0.1883144800
0.1465258700	-0.0009999500	-0.0709543970	0.0022036203	0.1881799000
0.1376769700	-0.0009999500	-0.0705083390	0.0022284659	0.1880912200
0.1308205000	-0.0009999500	-0.0701450410	0.0022495145	0.1881330500
0.1222615100	-0.0009999500	-0.0696711470	0.0022694523	0.1882861700
0.1154647800	-0.0009999500	-0.0692762880	0.0022906459	0.1885487300
0.1072194400	-0.0009999500	-0.0687773600	0.0023123709	0.1889379600
0.1005076700	-0.0009999500	-0.0683520660	0.0023324291	0.1893749100
0.0925696790	-0.0009999500	-0.0678297060	0.0023519823	0.1899388000
0.0861881820	-0.0009999500	-0.0673912760	0.0023717221	0.1905376200
0.0786008760	-0.0009999500	-0.0668508340	0.0023889995	0.1913153500
0.0722910090	-0.0009999500	-0.0663834590	0.0024062972	0.1920750700
0.0649087430	-0.0009999500	-0.0658163350	0.0024233451	0.1930414300
0.0586824380	-0.0009999500	-0.0653204100	0.0024400961	0.1939774200
0.0515467640	-0.0009999500	-0.0647315230	0.0024548867	0.1951697600
0.0456434670	-0.0009999500	-0.0642270150	0.0024695678	0.1962856200
0.0387529400	-0.0009999500	-0.0636184660	0.0024852290	0.1976521300
0.0332163870	-0.0009999500	-0.0631126310	0.0025014039	0.1988734300
0.0265275280	-0.0009999500	-0.0624827070	0.0025161630	0.2004045200
0.0210837180	-0.0009999500	-0.0619525610	0.0025330043	0.2017688900
0.0145550590	-0.0009999500	-0.0612982440	0.0025467620	0.2035354200
0.0092446851	-0.0009999500	-0.0607483830	0.0025625602	0.2051061500
0.0029737905	-0.0009999500	-0.0600806470	0.0025738613	0.2070402200
-0.0023235544	-0.0009999500	-0.0594989730	0.0025917779	0.2087878000
-0.0083524017	-0.0009999500	-0.0588178490	0.0026050499	0.2108429100
-0.0136132720	-0.0009999500	-0.0582063200	0.0026259129	0.2128279800
-0.0193435010	-0.0009999500	-0.0575203670	0.0026384405	0.2151144600
-0.0245578030	-0.0009999500	-0.0568793790	0.0026557747	0.2173347600
-0.0301055890	-0.0009999500	-0.0561768710	0.0026655959	0.2197618200
-0.0351908170	-0.0009999500	-0.0555163440	0.0026830726	0.2221563300
-0.0405231980	-0.0009999500	-0.0548035350	0.0026932809	0.2247844200
-0.0453496650	-0.0009999500	-0.0541419010	0.0027072627	0.2273071100
-0.0506275300	-0.0009999500	-0.0533986020	0.0027174618	0.2301951200
-0.0551282880	-0.0009999500	-0.0527487810	0.0027326729	0.2328090500
-0.0603389480	-0.0009999500	-0.0519765950	0.0027442711	0.2359452500
-0.0646966170	-0.0009999500	-0.0513148080	0.0027591437	0.2387131300
-0.0698748380	-0.0009999500	-0.0505078920	0.0027688422	0.2421806200
-0.0739867390	-0.0009999500	-0.0498510710	0.0027825840	0.2450907400
-0.0790944170	-0.0009999500	-0.0490149370	0.0027933118	0.2488355500
-0.0830853210	-0.0009999500	-0.0483446750	0.0028081770	0.2519395400
-0.0881216820	-0.0009999500	-0.0474787760	0.0028200780	0.2560484100
-0.0920781200	-0.0009999500	-0.0467803220	0.0028348765	0.2594655800
-0.0969783810	-0.0009999500	-0.0458952340	0.0028428823	0.2639097600
-0.1010219800	-0.0009999500	-0.0451452810	0.0028590874	0.2678015800
-0.1057644900	-0.0009999500	-0.0442446510	0.0028707650	0.2725601200
-0.1096720200	-0.0009999500	-0.0434833730	0.0028836063	0.2767048800
-0.1142101400	-0.0009999500	-0.0425779820	0.0028927732	0.2817407500
-0.1181130900	-0.0009999500	-0.0417785870	0.0029059986	0.2863532300
-0.1225758000	-0.0009999500	-0.0408427490	0.0029122077	0.2917837800
-0.1265969900	-0.0009999500	-0.0399762690	0.0029263259	0.2970565000
-0.1307186600	-0.0009999500	-0.0390669960	0.0029335042	0.3028226200
-0.1348900500	-0.0009999500	-0.0381207020	0.0029455824	0.3089242300
-0.1388526700	-0.0009999500	-0.0372001570	0.0029485229	0.3150441100
-0.1430405400	-0.0009999500	-0.0361991820	0.0029613798	0.3218591200
-0.1469000300	-0.0009999500	-0.0352541210	0.0029655842	0.3285193400
-0.1509832600	-0.0009999500	-0.0342236910	0.0029740224	0.3360993900
-0.1549668000	-0.0009999500	-0.0331925790	0.0029752221	0.3438672400
-0.1591816100	-0.0009999500	-0.0320674810	0.0029863450	0.3529092700
-0.1629061100	-0.0009999500	-0.0310456720	0.0029933541	0.3611988700
-0.1661071600	-0.0009999500	-0.0301400140	0.0029938093	0.3684924200
-0.1695444600	-0.0009999500	-0.0291506310	0.0029594052	0.3767790200
-0.1744662200	-0.0009999500	-0.0276708750	0.0029458589	0.3908954900
-0.1768440900	-0.0009999500	-0.0269474350	0.0029562779	0.3975186600
-0.1796065900	-0.0009999500	-0.0260670710	0.0029506982	0.4064345400
-0.1829179200	-0.0009999500	-0.0250049160	0.0029585358	0.4174626500
-0.1864545900	-0.0009999500	-0.0238211140	0.0029499022	0.4296484000
-0.1888799800	-0.0009999500	-0.0229899730	0.0029458071	0.4379895600
-0.1920422900	-0.0009999500	-0.0218775420	0.0029280690	0.4504146600
-0.1938297500	-0.0009999500	-0.0212241580	0.0029342176	0.4581358700
-0.1965223300	-0.0009999500	-0.0202352780	0.0029081451	0.4692681700
-0.1984837500	-0.0009999500	-0.0194873680	0.0028784628	0.4789301800
-0.2015169400	-0.0009999500	-0.0183054230	0.0028467368	0.4956544000
-0.2035863100	-0.0009999500	-0.0174740520	0.0028244384	0.5067259700
-0.2062346800	-0.0009999500	-0.0163748230	0.0027840075	0.5213204000
-0.2081667600	-0.0009999500	-0.0155559700	0.0027440250	0.5327218800
-0.2106335800	-0.0009999500	-0.0144662420	0.0026820419	0.5488927400
-0.2120854400	-0.0009999500	-0.0138200950	0.0026551008	0.5583653500
-0.2134328300	-0.0009999500	-0.0131930980	0.0026264980	0.5685481400
-0.2157035800	-0.0009999500	-0.0121244410	0.0026086008	0.5863161700
-0.2173043500	-0.0009999500	-0.0113406900	0.0025715340	0.5991710400
-0.2191166700	-0.0009999500	-0.0104334870	0.0025291806	0.6153807000
-0.2206422200	-0.0009999500	-0.0096425591	0.0024819605	0.6293396400
-0.2223617300	-0.0009999500	-0.0087291328	0.0024331803	0.6463814400
-0.2238420500	-0.0009999500	-0.0079127681	0.0023831787	0.6614617100
-0.2255245100	-0.0009999500	-0.0069610667	0.0023207340	0.6801456800
-0.2269109900	-0.0009999500	-0.0061431075	0.0022606387	0.6962282100
-0.2285304400	-0.0009999500	-0.0051621050	0.0021924866	0.7161538600
-0.2298527200	-0.0009999500	-0.0043243147	0.0021312932	0.7330911200
-0.2313555300	-0.0009999500	-0.0033453270	0.0020609059	0.7541468700
-0.2325588200	-0.0009999500	-0.0025218476	0.0019942487	0.7717412700
-0.2339564900	-0.0009999500	-0.0015365873	0.0019120161	0.7934751500
-0.2350896000	-0.0009999500	-0.0006936432	0.0018360794	0.8115687400
-0.2363663500	-0.0009999500	0.0002867655	0.0017381933	0.8335935500
-0.2374017800	-0.0009999500	0.0011290181	0.0016499787	0.8517001900
-0.2385747300	-0.0009999500	0.0021166448	0.0015309619	0.8733373900
-0.2395547600	-0.0009999500	0.0029969520	0.0014282520	0.8912237900
-0.2406405400	-0.0009999500	0.0040118215	0.0012809906	0.9121239200
-0.2415248600	-0.0009999500	0.0049026455	0.0011537357	0.9287275700
-0.2424865700	-0.0009999500	0.0059167016	0.0009726643	0.9470758400
-0.2433190000	-0.0009999500	0.0068712202	0.0008164086	0.9611526700
-0.2441810700	-0.0009999500	0.0079151969	0.0006063303	0.9747754900
-0.2449302200	-0.0009999500	0.0089172563	0.0004215434	0.9836320900
-0.2456383600	-0.0009999500	0.0099319378	0.0002082788	0.9896923900
-0.2463195600	-0.0009999500	0.0110357700	0.0000092731	0.9894480100
-0.2468878500	-0.0009999500	0.0120415200	-0.0001756344	0.9853522200
-0.2474679800	-0.0009999500	0.0132420940	-0.0003523161	0.9702209800
-0.2478838300	-0.0009999500	0.0142170690	-0.0004588114	0.9536294300
-0.2483412200	-0.0009999500	0.0155310360	-0.0005566940	0.9170541800
-0.2485831700	-0.0009999500	0.0163855780	-0.0005394753	0.8894457800
-0.2488577800	-0.0009999500	0.0176344380	-0.0005154646	0.8359305300
-0.2489495300	-0.0009999500	0.0183119620	-0.0003913280	0.7993643900
-0.2490799600	-0.0009999500	0.0195041630	-0.0000892994	0.7327258600
-0.2490574400	-0.0009999500	0.0210570060	0.0003474445	0.6274364600
-0.2490484700	-0.0009999500	0.0217913630	0.0006707781	0.5840967900
-0.2489298000	-0.0009999500	0.0225160610	0.0010018885	0.5272405100
-0.2486806800	-0.0009999500	0.0240533050	0.0018541547	0.4111339700
-0.2483414300	-0.0009999500	0.0252130760	0.0023890878	0.3128505600
-0.2481372100	-0.0009999500	0.0258510950	0.0027804970	0.2633957000
-0.2476424700	-0.0009999500	0.0270478910	0.0033579196	0.1719633900
-0.2472743200	-0.0009999500	0.0278107300	0.0037467603	0.1163184000
-0.2465892400	-0.0009999500	0.0290396010	0.0042840386	0.0299135480
-0.2460487800	-0.0009999500	0.0298743400	0.0046761585	-0.0244010000
-0.2452581500	-0.0009999500	0.0309760030	0.0051322846	-0.0909774300
-0.2445578000	-0.0009999500	0.0318321510	0.0054358885	-0.1383066600
-0.2436918500	-0.0009999500	0.0328100620	0.0057375496	-0.1849090200
-0.2428425600	-0.0009999500	0.0336669980	0.0059547441	-0.2225126300
-0.2418947200	-0.0009999500	0.0345629680	0.0061511615	-0.2552191600
-0.2409286400	-0.0009999500	0.0353928130	0.0062965379	-0.2847414000
-0.2399231200	-0.0009999500	0.0362097020	0.0064227271	-0.3086746600
-0.2388503600	-0.0009999500	0.0370097830	0.0065041689	-0.3312412800
-0.2377577100	-0.0009999500	0.0377838690	0.0065592967	-0.3482615900
-0.2366081900	-0.0009999500	0.0385382400	0.0065911221	-0.3646153800
-0.2354529100	-0.0009999500	0.0392614790	0.0066119066	-0.3760279100
-0.2341827200	-0.0009999500	0.0400037800	0.0066097144	-0.3882286000
-0.2329255800	-0.0009999500	0.0407077220	0.0066131764	-0.3962479200
-0.2315619300	-0.0009999500	0.0414230490	0.0065883905	-0.4055119500
-0.2302497900	-0.0009999500	0.0420838930	0.0065847255	-0.4111047700
-0.2287795400	-0.0009999500	0.0427788790	0.0065347714	-0.4180718700
-0.2273794100	-0.0009999500	0.0434163290	0.0065196708	-0.4212992800
-0.2257869500	-0.0009999500	0.0440976880	0.0064512172	-0.4259299300
-0.2244045900	-0.0009999500	0.0446715130	0.0064426310	-0.4275051100
-0.2226267800	-0.0009999500	0.0453629870	0.0062699131	-0.4321486400
-0.2214928300	-0.0009999500	0.0457975530	0.0062790380	-0.4333469600
-0.2203588000	-0.0009999500	0.0462029240	0.0062116822	-0.4335201100
-0.2183501000	-0.0009999500	0.0469129310	0.0061949363	-0.4337148400
-0.2168965900	-0.0009999500	0.0473947340	0.0061689328	-0.4326830200
-0.2148317100	-0.0009999500	0.0480595010	0.0060913428	-0.4325721600
-0.2133052800	-0.0009999500	0.0485264320	0.0060478611	-0.4313760100
-0.2110256700	-0.0009999500	0.0491950740	0.0058921537	-0.4310358200
-0.2095974700	-0.0009999500	0.0495992560	0.0058784589	-0.4299177200
-0.2076750700	-0.0009999500	0.0501152980	0.0057372227	-0.4284105000
-0.2065871400	-0.0009999500	0.0504058260	0.0057211245	-0.4270383400
-0.2044329500	-0.0009999500	0.0509498490	0.0056653544	-0.4240775700
-0.2030473100	-0.0009999500	0.0512872640	0.0055818561	-0.4231248200
-0.2010702800	-0.0009999500	0.0517571790	0.0055403453	-0.4214449800
-0.1991717800	-0.0009999500	0.0521828530	0.0054711695	-0.4189131900
-0.1975435900	-0.0009999500	0.0525444370	0.0054447914	-0.4168048800
-0.1950059400	-0.0009999500	0.0530762370	0.0054006593	-0.4131910500
-0.1931822000	-0.0009999500	0.0534442220	0.0053427989	-0.4112035900
-0.1905696700	-0.0009999500	0.0539510470	0.0052830945	-0.4076019800
-0.1888018400	-0.0009999500	0.0542762320	0.0052243454	-0.4054157700
-0.1861730100	-0.0009999500	0.0547470970	0.0051896611	-0.4016870300
-0.1838601800	-0.0009999500	0.0551366580	0.0051298372	-0.3988292800
-0.1812049000	-0.0009999500	0.0555723310	0.0050968500	-0.3951485500
-0.1782160600	-0.0009999500	0.0560289660	0.0050174125	-0.3914127900
-0.1755795900	-0.0009999500	0.0564204680	0.0049498672	-0.3878933200
-0.1729333400	-0.0009999500	0.0567844850	0.0048662771	-0.3846096400
-0.1705957400	-0.0009999500	0.0571025310	0.0048382828	-0.3818367400
-0.1680320900	-0.0009999500	0.0574265830	0.0047463681	-0.3782874000
-0.1665130700	-0.0009999500	0.0576142670	0.0047263021	-0.3761264100
-0.1638159300	-0.0009999500	0.0579334650	0.0047192117	-0.3721228200
-0.1613155500	-0.0009999500	0.0582102200	0.0046553164	-0.3692733600
-0.1587730600	-0.0009999500	0.0584877880	0.0046466244	-0.3663180200
-0.1564428400	-0.0009999500	0.0587231630	0.0045821826	-0.3631711300
-0.1541019100	-0.0009999500	0.0589540190	0.0045489250	-0.3600861400
-0.1513067200	-0.0009999500	0.0592140260	0.0045286112	-0.3566161400
-0.1479614100	-0.0009999500	0.0595055410	0.0044772655	-0.3528154800
-0.1449325400	-0.0009999500	0.0597550680	0.0044387057	-0.3492043300
-0.1416595100	-0.0009999500	0.0600046440	0.0043911678	-0.3453312800
-0.1386022600	-0.0009999500	0.0602246110	0.0043577972	-0.3416292700
-0.1346774700	-0.0009999500	0.0604832770	0.0043023872	-0.3371430300
-0.1315258000	-0.0009999500	0.0606755200	0.0042667259	-0.3335617500
-0.1281563800	-0.0009999500	0.0608649400	0.0042216246	-0.3297476200
-0.1249113500	-0.0009999500	0.0610323620	0.0041885855	-0.3261284200
-0.1212399700	-0.0009999500	0.0612052270	0.0041374284	-0.3219905500
-0.1177652800	-0.0009999500	0.0613519850	0.0041016103	-0.3180886200
-0.1145233300	-0.0009999500	0.0614760820	0.0040605923	-0.3145470600
-0.1108454300	-0.0009999500	0.0616004910	0.0040290037	-0.3104825300
-0.1074816400	-0.0009999500	0.0617007390	0.0039877088	-0.3069293200
-0.1036660700	-0.0009999500	0.0617982630	0.0039615050	-0.3027814600
-0.1002248500	-0.0009999500	0.0618726050	0.0039171466	-0.2991666200
-0.0962634830	-0.0009999500	0.0619420860	0.0038879593	-0.2949518900
-0.0928181190	-0.0009999500	0.0619895460	0.0038498922	-0.2913005100
-0.0887628790	-0.0009999500	0.0620293730	0.0038231615	-0.2870011000
-0.0852655540	-0.0009999500	0.0620513480	0.0037879107	-0.2834740900
-0.0810529220	-0.0009999500	0.0620614660	0.0037609299	-0.2791774300
-0.0774706160	-0.0009999500	0.0620575850	0.0037247217	-0.2756076500
-0.0731555300	-0.0009999500	0.0620367450	0.0036960234	-0.2712276300
-0.0695024730	-0.0009999500	0.0620065220	0.0036611479	-0.2675913000
-0.0650475700	-0.0009999500	0.0619537420	0.0036305745	-0.2631369500
-0.0612469390	-0.0009999500	0.0618956090	0.0035932766	-0.2593869300
-0.0566997750	-0.0009999500	0.0618105530	0.0035619825	-0.2547816900
-0.0528398340	-0.0009999500	0.0617252510	0.0035265610	-0.2509568300
-0.0481373440	-0.0009999500	0.0616057480	0.0034949021	-0.2463019500
-0.0441397430	-0.0009999500	0.0614911880	0.0034572925	-0.2424069000
-0.0392956770	-0.0009999500	0.0613362710	0.0034241344	-0.2376122500
-0.0352196170	-0.0009999500	0.0611933250	0.0033864172	-0.2336276800
-0.0302062970	-0.0009999500	0.0610008170	0.0033523298	-0.2287300500
-0.0260537970	-0.0009999500	0.0608289950	0.0033139858	-0.2246869700
-0.0209403880	-0.0009999500	0.0606007090	0.0032792829	-0.2196583000
-0.0166720110	-0.0009999500	0.0603975910	0.0032398469	-0.2155312200
-0.0114396750	-0.0009999500	0.0601323770	0.0032037375	-0.2103947300
-0.0070176627	-0.0009999500	0.0598950610	0.0031646121	-0.2061280800
-0.0016586066	-0.0009999500	0.0595915020	0.0031293200	-0.2008714500
0.0029227985	-0.0009999500	0.0593185240	0.0030927189	-0.1964520400
0.0085151484	-0.0009999500	0.0589687750	0.0030567009	-0.1910471300
0.0131910780	-0.0009999500	0.0586633310	0.0030222933	-0.1865357600
0.0189720260	-0.0009999500	0.0582682040	0.0029858380	-0.1809442200
0.0237688420	-0.0009999500	0.0579277840	0.0029496078	-0.1763683600
0.0298007560	-0.0009999500	0.0574812180	0.0029100392	-0.1705403900
0.0346670230	-0.0009999500	0.0571086000	0.0028719362	-0.1658585500
0.0409155260	-0.0009999500	0.0566111800	0.0028313891	-0.1598009000
0.0458625260	-0.0009999500	0.0562050750	0.0027946333	-0.1550396100
0.0523721310	-0.0009999500	0.0556513630	0.0027513712	-0.1487505900
0.0574921670	-0.0009999500	0.0552031510	0.0027151439	-0.1438620200
0.0642143190	-0.0009999500	0.0545952320	0.0026721006	-0.1374031000
0.0694238920	-0.0009999500	0.0541113500	0.0026355709	-0.1324507400
0.0763708350	-0.0009999500	0.0534466060	0.0025894151	-0.1258270300
0.0817384790	-0.0009999500	0.0529202150	0.0025536788	-0.1206930700
0.0888991730	-0.0009999500	0.0521979480	0.0025096949	-0.1138645200
0.0944893880	-0.0009999500	0.0516212510	0.0024758001	-0.1086062400
0.1018577500	-0.0009999500	0.0508407240	0.0024307538	-0.1016384500
0.1076706800	-0.0009999500	0.0502116270	0.0023975764	-0.0961861680
0.1152107600	-0.0009999500	0.0493753660	0.0023534295	-0.0890749100
0.1212118900	-0.0009999500	0.0486960220	0.0023194171	-0.0834601450
0.1290077300	-0.0009999500	0.0477932880	0.0022739274	-0.0761507000
0.1351762300	-0.0009999500	0.0470650010	0.0022402788	-0.0703422500
0.1432436900	-0.0009999500	0.0460918990	0.0021963881	-0.0628229600
0.1496362500	-0.0009999500	0.0453067010	0.0021624063	-0.0568974060
0.1580797400	-0.0009999500	0.0442481560	0.0021186382	-0.0491246920
0.1647656300	-0.0009999500	0.0433954890	0.0020865264	-0.0429897350
0.1734999000	-0.0009999500	0.0422595520	0.0020397407	-0.0350226090
1 2 
2 3 
3 4 
4 5 
5 6 
6 7 
7 8 
8 9 
9 10 
10 11 
11 12 
12 13 
13 14 
14 15 
15 16 
16 17 
17 18 
18 19 
19 20 
20 21 
21 22 
22 23 
23 24 
24 25 
25 26 
26 27 
27 28 
28 29 
29 30 
30 31 
31 32 
32 33 
33 34 
34 35 
35 36 
36 37 
37 38 
38 39 
39 40 
40 41 
41 42 
42 43 
43 44 
44 45 
45 46 
46 47 
47 48 
48 49 
49 50 
50 51 
51 52 
52 53 
53 54 
54 55 
55 56 
56 57 
57 58 
58 59 
59 60 
60 61 
61 62 
62 63 
63 64 
64 65 
65 66 
66 67 
67 68 
68 69 
69 70 
70 71 
71 72 
72 73 
73 74 
74 75 
75 76 
76 77 
77 78 
78 79 
79 80 
80 81 
81 82 
82 83 
83 84 
84 85 
85 86 
86 87 
87 88 
88 89 
89 90 
90 91 
91 92 
92 93 
93 94 
94 95 
95 96 
96 97 
97 98 
98 99 
99 100 
100 101 
101 102 
102 103 
103 104 
104 105 
105 106 
106 107 
107 108 
108 109 
109 110 
110 111 
111 112 
112 113 
113 114 
114 115 
115 116 
116 117 
117 118 
118 119 
119 120 
120 121 
121 122 
122 123 
123 124 
124 125 
125 126 
126 127 
127 128 
128 129 
129 130 
130 131 
131 132 
132 133 
133 134 
134 135 
135 136 
136 137 
137 138 
138 139 
139 140 
140 141 
141 142 
142 143 
143 144 
144 145 
145 146 
146 147 
147 148 
148 149 
149 150 
150 151 
151 152 
152 153 
153 154 
154 155 
155 156 
156 157 
157 158 
158 159 
159 160 
160 161 
161 162 
162 163 
163 164 
164 165 
165 166 
166 167 
167 168 
168 169 
169 170 
170 171 
171 172 
172 173 
173 174 
174 175 
175 176 
176 177 
177 178 
178 179 
179 180 
180 181 
181 182 
182 183 
183 184 
184 185 
185 186 
186 187 
187 188 
188 189 
189 190 
190 191 
191 192 
192 193 
193 194 
194 195 
195 196 
196 197 
197 198 
198 199 
199 200 
200 201 
201 202 
202 203 
203 204 
204 205 
205 206 
206 207 
207 208 
208 209 
209 210 
210 211 
211 212 
212 213 
213 214 
214 215 
215 216 
216 217 
217 218 
218 219 
219 220 
220 221 
221 222 
222 223 
223 224 
224 225 
225 226 
226 227 
227 228 
228 229 
229 230 
230 231 
231 232 
232 233 
233 234 
234 235 
235 236 
236 237 
237 238 
238 239 
239 240 
240 241 
241 242 
242 243 
243 244 
244 245 
245 246 
246 247 
247 248 
248 249 
249 250 
250 251 
251 252 
252 253 
253 254 
254 255 
255 256 
256 257 
257 258 
258 259 
259 260 
260 261 
261 262 
262 263 
263 264 
264 265 
265 266 
266 267 
267 268 
268 269 
269 270 
270 271 
271 272 
272 273 
273 274 
274 275 
275 276 
276 277 
277 278 
278 279 
279 280 
280 281 
281 282 
282 283 
283 284 
284 285 
285 286 
286 287 
287 288 
288 289 
289 290 
290 291 
291 292 
292 293 
293 294 
294 295 
295 296 
296 297 
297 298 
298 299 
299 300 
300 301 
301 302 
302 303 
303 304 
304 305 
305 306 
306 307 
307 308 
308 309 
309 310 
310 311 
311 312 
312 313 
313 314 
314 315 
315 316 
316 317 
317 318 
318 319 
319 320 
320 321 
321 322 
322 323 
323 324 
324 325 
325 326 
326 327 
327 328 
328 329 
329 330 
330 331 
331 332 
332 333 
333 334 
334 335 
335 336 
336 337 
337 338 
338 339 
339 340 
340 341 
341 342 
342 343 
343 344 
344 345 
345 346 
346 347 
347 348 
348 349 
349 350 
350 351 
351 352 
352 353 
353 354 
354 355 
355 356 
356 357 
357 358 
358 359 
359 360 
360 361 
361 362 
362 363 
363 364 
364 365 
365 366 
366 367 
367 368 
368 369 
369 370 
370 371 
371 372 
372 373 
373 374 
374 375 
375 376 
376 377 
377 378 
378 379 
379 380 
380 381 
381 382 
382 383 
383 384 
ZONE T="Slice: Y=-0.035"
STRANDID=0, SOLUTIONTIME=0
Nodes=290, Elements=289, ZONETYPE=FELineSeg
DATAPACKING=POINT
DT=(DOUBLE DOUBLE DOUBLE DOUBLE DOUBLE )
0.1569850100	-0.0349999520	0.0443862230	0.0027448954	-0.0543172470
0.1683802800	-0.0349999520	0.0429240200	0.0026806705	-0.0436588080
0.1766132000	-0.0349999520	0.0418504550	0.0026335748	-0.0360098150
0.1961416800	-0.0349999520	0.0392107370	0.0025305931	-0.0181352420
0.1990482400	-0.0349999520	0.0388151710	0.0025166071	-0.0154945590
0.2018555300	-0.0349999520	0.0384196900	0.0025046856	-0.0129649620
0.2218945200	-0.0349999520	0.0355806460	0.0024267725	0.0049930885