VARIABLES= iterations rms_res_mf1 rms_res_mf2 rms_res_mf3 rms_res_mf4 rms_res_mf5 rms_res_trb1 CL CD CDv CM
ZONE T = "USM3D-ME, HeldenMesh_F"
1  -999  -999  -999  -999  2.680747E-07  7.620175E-05  -2.727173E-02  7.391740E-01  7.391740E-01  1.346140E-04
2  -999  -999  -999  -999  2.167304E-07  5.065461E-05  5.916820E-01  1.032169E+00  7.338071E-01  -1.585157E-01
3  -999  -999  -999  -999  1.561154E-07  2.923130E-05  1.313492E+00  1.387373E+00  7.234018E-01  -3.398695E-01
4  -999  -999  -999  -999  1.108422E-07  1.538601E-05  1.771585E+00  1.608861E+00  7.035438E-01  -4.539505E-01
5  -999  -999  -999  -999  8.324079E-08  7.874776E-06  1.806661E+00  1.589562E+00  6.667089E-01  -4.633085E-01
6  -999  -999  -999  -999  6.096413E-08  4.302159E-06  1.724279E+00  1.480675E+00  6.028463E-01  -4.419562E-01
7  -999  -999  -999  -999  4.411525E-08  2.407639E-06  1.695219E+00  1.357396E+00  5.054599E-01  -4.335749E-01
8  -999  -999  -999  -999  3.194048E-08  1.401893E-06  1.660398E+00  1.177448E+00  3.867362E-01  -4.289232E-01
9  -999  -999  -999  -999  2.496905E-08  8.014190E-07  1.530629E+00  9.403131E-01  2.658139E-01  -4.154840E-01
10  -999  -999  -999  -999  7.254285E-08  4.912873E-07  1.339899E+00  6.484956E-01  1.853326E-01  -3.474702E-01
11  -999  -999  -999  -999  1.899829E-07  3.551056E-07  1.112129E+00  4.338384E-01  1.449035E-01  -2.418405E-01
12  -999  -999  -999  -999  2.321771E-07  2.414122E-07  9.559960E-01  3.041947E-01  1.075220E-01  -1.741288E-01
13  -999  -999  -999  -999  2.113103E-07  1.759919E-07  7.738764E-01  1.960207E-01  6.661875E-02  -9.650723E-02
14  -999  -999  -999  -999  5.474102E-08  1.750667E-07  4.196651E-01  7.789624E-02  5.394548E-02  3.686648E-02
15  -999  -999  -999  -999  4.397787E-08  1.737578E-07  2.409129E-01  5.016116E-02  5.141376E-02  8.470003E-02
16  -999  -999  -999  -999  6.382883E-08  1.777464E-07  9.683230E-02  2.263137E-02  4.980063E-02  1.362157E-01
17  -999  -999  -999  -999  9.778241E-08  1.811590E-07  2.197338E-03  6.981980E-03  4.819424E-02  1.563705E-01
18  -999  -999  -999  -999  6.672726E-08  1.839821E-07  -4.607967E-02  -1.307657E-03  4.745493E-02  1.668513E-01
19  -999  -999  -999  -999  7.941596E-08  1.882148E-07  -9.695529E-02  -1.043607E-02  4.634323E-02  1.742539E-01
20  -999  -999  -999  -999  1.006618E-07  1.969550E-07  -1.426235E-01  -2.013813E-02  4.458553E-02  1.749091E-01
21  -999  -999  -999  -999  1.184663E-07  2.148446E-07  -1.585203E-01  -2.697860E-02  4.185881E-02  1.636040E-01
22  -999  -999  -999  -999  1.174625E-07  2.477579E-07  -1.194371E-01  -2.723083E-02  3.802769E-02  1.342141E-01
23  -999  -999  -999  -999  8.150798E-08  2.681062E-07  3.437395E-02  -9.453277E-03  3.420596E-02  6.781442E-02
24  -999  -999  -999  -999  4.560653E-08  2.247803E-07  1.410060E-01  7.314163E-03  3.207634E-02  4.593942E-02
25  -999  -999  -999  -999  9.579416E-08  2.137357E-07  2.759401E-01  2.791756E-02  3.119322E-02  2.282619E-03
26  -999  -999  -999  -999  6.386361E-08  2.111191E-07  3.086604E-01  3.247744E-02  3.078241E-02  -9.559021E-03
27  -999  -999  -999  -999  7.555237E-08  2.102970E-07  3.614815E-01  4.025696E-02  3.014011E-02  -2.591103E-02
28  -999  -999  -999  -999  1.030892E-07  2.096945E-07  4.019163E-01  4.709681E-02  2.922748E-02  -3.204168E-02
29  -999  -999  -999  -999  1.281623E-07  2.137608E-07  4.053228E-01  4.663441E-02  2.794711E-02  -2.753932E-02
30  -999  -999  -999  -999  1.386764E-07  2.279068E-07  3.941556E-01  4.259242E-02  2.612880E-02  -1.894449E-02
31  -999  -999  -999  -999  1.075112E-07  2.285822E-07  3.689154E-01  3.840835E-02  2.552297E-02  -4.734845E-03
32  -999  -999  -999  -999  1.061357E-07  2.479603E-07  3.279970E-01  3.409878E-02  2.485482E-02  1.147449E-02
33  -999  -999  -999  -999  1.001848E-07  2.805130E-07  2.971170E-01  3.126768E-02  2.425543E-02  1.981986E-02
34  -999  -999  -999  -999  6.626189E-08  2.797941E-07  2.515199E-01  2.802650E-02  2.400936E-02  2.885357E-02
35  -999  -999  -999  -999  5.357663E-08  3.032173E-07  2.044731E-01  2.539814E-02  2.367394E-02  3.588473E-02
36  -999  -999  -999  -999  4.309884E-08  3.406380E-07  1.817430E-01  2.268764E-02  2.320246E-02  3.739279E-02
37  -999  -999  -999  -999  3.884371E-08  3.825141E-07  1.836022E-01  2.301744E-02  2.266395E-02  3.285315E-02
38  -999  -999  -999  -999  2.742855E-08  3.708867E-07  2.011969E-01  2.505661E-02  2.240106E-02  2.234124E-02
39  -999  -999  -999  -999  1.951909E-08  3.987486E-07  2.973448E-01  3.917112E-02  2.190867E-02  -5.100307E-03
40  -999  -999  -999  -999  8.762322E-09  4.451564E-07  2.809144E-01  4.070345E-02  2.118890E-02  1.247508E-03
41  -999  -999  -999  -999  3.837779E-08  4.729119E-07  2.770796E-01  4.055363E-02  2.044715E-02  3.443423E-03
42  -999  -999  -999  -999  2.954109E-08  4.590211E-07  2.785597E-01  4.087493E-02  2.009533E-02  3.670654E-03
43  -999  -999  -999  -999  2.410374E-08  5.045749E-07  2.773847E-01  4.136956E-02  1.940754E-02  4.205213E-03
44  -999  -999  -999  -999  2.386311E-08  5.803696E-07  2.769810E-01  4.128427E-02  1.864910E-02  4.495570E-03
45  -999  -999  -999  -999  2.033044E-08  5.612179E-07  2.766854E-01  4.230431E-02  1.837979E-02  4.641905E-03
46  -999  -999  -999  -999  2.069970E-08  6.041459E-07  2.763789E-01  4.269054E-02  1.788319E-02  4.980945E-03
47  -999  -999  -999  -999  2.651158E-08  7.359095E-07  2.768203E-01  4.083576E-02  1.720784E-02  5.455470E-03
48  -999  -999  -999  -999  2.990613E-08  9.515144E-07  2.794176E-01  3.980749E-02  1.661614E-02  4.645795E-03
49  -999  -999  -999  -999  2.600247E-08  9.415904E-07  2.823030E-01  3.893640E-02  1.634850E-02  4.776701E-03
50  -999  -999  -999  -999  2.262073E-08  1.122092E-06  2.821746E-01  3.828563E-02  1.584756E-02  4.841318E-03
51  -999  -999  -999  -999  2.540237E-08  1.445930E-06  2.803864E-01  3.697562E-02  1.529702E-02  6.158913E-03
52  -999  -999  -999  -999  2.351305E-08  1.729030E-06  2.787938E-01  3.599299E-02  1.503500E-02  6.748854E-03
53  -999  -999  -999  -999  1.732845E-08  1.606569E-06  2.752203E-01  3.396346E-02  1.479394E-02  8.246899E-03
54  -999  -999  -999  -999  5.342506E-09  1.922668E-06  2.711929E-01  3.083408E-02  1.449475E-02  8.967546E-03
55  -999  -999  -999  -999  3.687715E-08  2.223167E-06  2.693587E-01  3.094534E-02  1.421480E-02  8.584528E-03
56  -999  -999  -999  -999  2.698679E-08  1.858716E-06  2.685033E-01  3.075787E-02  1.405804E-02  8.681905E-03
57  -999  -999  -999  -999  1.907568E-08  1.797836E-06  2.675386E-01  3.021984E-02  1.378524E-02  8.992137E-03
58  -999  -999  -999  -999  1.851159E-08  1.788926E-06  2.636218E-01  2.945299E-02  1.347160E-02  9.134986E-03
59  -999  -999  -999  -999  1.882119E-08  1.985112E-06  2.606980E-01  2.805172E-02  1.329800E-02  9.660583E-03
60  -999  -999  -999  -999  1.731652E-08  1.631040E-06  2.565229E-01  2.610070E-02  1.315722E-02  1.058049E-02
61  -999  -999  -999  -999  1.862535E-08  1.765780E-06  2.528671E-01  2.473788E-02  1.296431E-02  1.112305E-02
62  -999  -999  -999  -999  1.950945E-08  2.062808E-06  2.516746E-01  2.490123E-02  1.283112E-02  1.102579E-02
63  -999  -999  -999  -999  1.834791E-08  1.837462E-06  2.501681E-01  2.570765E-02  1.273712E-02  1.069462E-02
64  -999  -999  -999  -999  2.911842E-08  2.126287E-06  2.488064E-01  2.637070E-02  1.258080E-02  9.592089E-03
65  -999  -999  -999  -999  2.834256E-08  2.445299E-06  2.487871E-01  2.626191E-02  1.243870E-02  9.371841E-03
66  -999  -999  -999  -999  2.353310E-08  2.139244E-06  2.503770E-01  2.669412E-02  1.236396E-02  9.083869E-03
67  -999  -999  -999  -999  2.109418E-08  2.250176E-06  2.518642E-01  2.792489E-02  1.223578E-02  8.293952E-03
68  -999  -999  -999  -999  1.911276E-08  2.526001E-06  2.512020E-01  2.854934E-02  1.207927E-02  7.871490E-03
69  -999  -999  -999  -999  1.816656E-08  2.837235E-06  2.503014E-01  2.831554E-02  1.198363E-02  8.000336E-03
70  -999  -999  -999  -999  1.561935E-08  2.412432E-06  2.479039E-01  2.767470E-02  1.189314E-02  8.514298E-03
71  -999  -999  -999  -999  1.384464E-08  2.465752E-06  2.455636E-01  2.702173E-02  1.175381E-02  9.045451E-03
72  -999  -999  -999  -999  1.247115E-08  2.685796E-06  2.436153E-01  2.717298E-02  1.162193E-02  9.071412E-03
73  -999  -999  -999  -999  8.949562E-09  2.211600E-06  2.419686E-01  2.773841E-02  1.155832E-02  8.932809E-03
74  -999  -999  -999  -999  8.279094E-09  2.485050E-06  2.419375E-01  2.841707E-02  1.147230E-02  8.209184E-03
75  -999  -999  -999  -999  5.089689E-09  2.310382E-06  2.430248E-01  2.855662E-02  1.144371E-02  7.806730E-03
76  -999  -999  -999  -999  1.673048E-09  2.887625E-06  2.441918E-01  2.919956E-02  1.139412E-02  7.379413E-03
77  -999  -999  -999  -999  1.415887E-09  2.903673E-06  2.440749E-01  2.977644E-02  1.138053E-02  7.363313E-03
78  -999  -999  -999  -999  5.298055E-09  3.351697E-06  2.434283E-01  2.998422E-02  1.135308E-02  7.590623E-03
79  -999  -999  -999  -999  6.715175E-09  3.414529E-06  2.425588E-01  3.018222E-02  1.130631E-02  7.695064E-03
80  -999  -999  -999  -999  7.227267E-09  3.094019E-06  2.429940E-01  3.020147E-02  1.123702E-02  7.885611E-03
81  -999  -999  -999  -999  7.992434E-09  2.661967E-06  2.426790E-01  3.014113E-02  1.114415E-02  7.753570E-03
82  -999  -999  -999  -999  8.210322E-09  2.408164E-06  2.434647E-01  2.998457E-02  1.105451E-02  7.696382E-03
83  -999  -999  -999  -999  7.715755E-09  1.683237E-06  2.426622E-01  2.980531E-02  1.101550E-02  7.902094E-03
84  -999  -999  -999  -999  6.316943E-09  1.610767E-06  2.418134E-01  2.933615E-02  1.095252E-02  8.272081E-03
85  -999  -999  -999  -999  4.680483E-09  1.491067E-06  2.410332E-01  2.883709E-02  1.093943E-02  8.601828E-03
86  -999  -999  -999  -999  2.497940E-09  1.800431E-06  2.405164E-01  2.843068E-02  1.092556E-02  8.752380E-03
87  -999  -999  -999  -999  6.186465E-10  1.790166E-06  2.403361E-01  2.820679E-02  1.092218E-02  8.756912E-03
88  -999  -999  -999  -999  4.661870E-09  2.172664E-06  2.394049E-01  2.798969E-02  1.091474E-02  8.917387E-03
89  -999  -999  -999  -999  6.531061E-09  2.197849E-06  2.387292E-01  2.767550E-02  1.089530E-02  9.140264E-03
90  -999  -999  -999  -999  6.555442E-09  1.918325E-06  2.367873E-01  2.735304E-02  1.086585E-02  9.396275E-03
91  -999  -999  -999  -999  6.373763E-09  1.712919E-06  2.364483E-01  2.705286E-02  1.082299E-02  9.520012E-03
92  -999  -999  -999  -999  6.441715E-09  1.670619E-06  2.356166E-01  2.691244E-02  1.078351E-02  9.551822E-03
93  -999  -999  -999  -999  6.374842E-09  1.142836E-06  2.339473E-01  2.656674E-02  1.075941E-02  9.785388E-03
94  -999  -999  -999  -999  7.028257E-09  1.171462E-06  2.328603E-01  2.624782E-02  1.072291E-02  9.977620E-03
95  -999  -999  -999  -999  7.573709E-09  1.252826E-06  2.325260E-01  2.618757E-02  1.069063E-02  9.940384E-03
96  -999  -999  -999  -999  7.147354E-09  9.670980E-07  2.318414E-01  2.613962E-02  1.067157E-02  9.746897E-03
97  -999  -999  -999  -999  7.918654E-09  1.026234E-06  2.315660E-01  2.623799E-02  1.063797E-02  9.547763E-03
98  -999  -999  -999  -999  8.677551E-09  1.122242E-06  2.313326E-01  2.637074E-02  1.059692E-02  9.507138E-03
99  -999  -999  -999  -999  7.695225E-09  9.402870E-07  2.310427E-01  2.661769E-02  1.057892E-02  9.498675E-03
100  -999  -999  -999  -999  7.216194E-09  9.716739E-07  2.309606E-01  2.678872E-02  1.054330E-02  9.388748E-03
101  -999  -999  -999  -999  6.678527E-09  1.025704E-06  2.311296E-01  2.706258E-02  1.049653E-02  9.343389E-03
102  -999  -999  -999  -999  6.231129E-09  1.106429E-06  2.306797E-01  2.716198E-02  1.046407E-02  9.366222E-03
103  -999  -999  -999  -999  4.950926E-09  8.842820E-07  2.297106E-01  2.719127E-02  1.043741E-02  9.467549E-03
104  -999  -999  -999  -999  4.344507E-09  9.496644E-07  2.289607E-01  2.714316E-02  1.039902E-02  9.487941E-03
105  -999  -999  -999  -999  3.729531E-09  1.032607E-06  2.286549E-01  2.710674E-02  1.036347E-02  9.470940E-03
106  -999  -999  -999  -999  2.291497E-09  9.002857E-07  2.284284E-01  2.707718E-02  1.034397E-02  9.415425E-03
107  -999  -999  -999  -999  1.057256E-09  9.501313E-07  2.285685E-01  2.713943E-02  1.033958E-02  9.261515E-03
108  -999  -999  -999  -999  3.470159E-10  1.230546E-06  2.290349E-01  2.731333E-02  1.033122E-02  9.072397E-03
109  -999  -999  -999  -999  1.789426E-09  1.635502E-06  2.288379E-01  2.761577E-02  1.031950E-02  9.156272E-03
110  -999  -999  -999  -999  2.547815E-09  1.496287E-06  2.279380E-01  2.772787E-02  1.029129E-02  9.424349E-03
111  -999  -999  -999  -999  2.312708E-09  1.222786E-06  2.280983E-01  2.777895E-02  1.026060E-02  9.339191E-03
112  -999  -999  -999  -999  2.471564E-09  1.206152E-06  2.279644E-01  2.767280E-02  1.023256E-02  9.395343E-03
113  -999  -999  -999  -999  2.336321E-09  7.901146E-07  2.276792E-01  2.765929E-02  1.021682E-02  9.463543E-03
114  -999  -999  -999  -999  2.163958E-09  7.977759E-07  2.275858E-01  2.754862E-02  1.019314E-02  9.506888E-03
115  -999  -999  -999  -999  1.776867E-09  7.142540E-07  2.274786E-01  2.747401E-02  1.018675E-02  9.565511E-03
116  -999  -999  -999  -999  1.498757E-09  8.241965E-07  2.272638E-01  2.732785E-02  1.017754E-02  9.692422E-03
117  -999  -999  -999  -999  8.326339E-10  8.119177E-07  2.271675E-01  2.733948E-02  1.017547E-02  9.717782E-03
118  -999  -999  -999  -999  1.903727E-10  9.634986E-07  2.268574E-01  2.725665E-02  1.017141E-02  9.789082E-03
119  -999  -999  -999  -999  2.193871E-09  1.258405E-06  2.262279E-01  2.699686E-02  1.016433E-02  9.916708E-03
120  -999  -999  -999  -999  2.043746E-09  1.030288E-06  2.261103E-01  2.694626E-02  1.015193E-02  9.929705E-03
121  -999  -999  -999  -999  1.937833E-09  9.370458E-07  2.258802E-01  2.687249E-02  1.013714E-02  9.970624E-03
122  -999  -999  -999  -999  1.577529E-09  6.649127E-07  2.250950E-01  2.672750E-02  1.013194E-02  1.010575E-02
123  -999  -999  -999  -999  2.584269E-09  7.065011E-07  2.243795E-01  2.644577E-02  1.012173E-02  1.022598E-02
124  -999  -999  -999  -999  2.536415E-09  7.051196E-07  2.242151E-01  2.640107E-02  1.010745E-02  1.022451E-02
125  -999  -999  -999  -999  2.128348E-09  5.616489E-07  2.241139E-01  2.643015E-02  1.010309E-02  1.024012E-02
126  -999  -999  -999  -999  2.434626E-09  5.693797E-07  2.240684E-01  2.656438E-02  1.009510E-02  1.009925E-02
127  -999  -999  -999  -999  2.819284E-09  5.883618E-07  2.239432E-01  2.651245E-02  1.008091E-02  1.005062E-02
128  -999  -999  -999  -999  3.012543E-09  6.288284E-07  2.238586E-01  2.644973E-02  1.006696E-02  1.008498E-02
129  -999  -999  -999  -999  2.700861E-09  4.663542E-07  2.235334E-01  2.644174E-02  1.005902E-02  1.014485E-02
130  -999  -999  -999  -999  2.505371E-09  4.756572E-07  2.233837E-01  2.651109E-02  1.004512E-02  1.015645E-02
131  -999  -999  -999  -999  2.331662E-09  4.988466E-07  2.233455E-01  2.661761E-02  1.002919E-02  1.014420E-02
132  -999  -999  -999  -999  1.885278E-09  3.989167E-07  2.230925E-01  2.673066E-02  1.002268E-02  1.011882E-02
133  -999  -999  -999  -999  1.688254E-09  4.109346E-07  2.228720E-01  2.667876E-02  1.001070E-02  1.010352E-02
134  -999  -999  -999  -999  1.621355E-09  4.324215E-07  2.227378E-01  2.661699E-02  9.994504E-03  1.012638E-02
135  -999  -999  -999  -999  1.164381E-09  3.761972E-07  2.226208E-01  2.662850E-02  9.989530E-03  1.012530E-02
136  -999  -999  -999  -999  8.098691E-10  4.137425E-07  2.226427E-01  2.667183E-02  9.979835E-03  1.005461E-02
137  -999  -999  -999  -999  5.129806E-10  4.278175E-07  2.226992E-01  2.677342E-02  9.977658E-03  9.999738E-03
138  -999  -999  -999  -999  3.412737E-10  5.475916E-07  2.226926E-01  2.672060E-02  9.973518E-03  9.976372E-03
139  -999  -999  -999  -999  1.278893E-10  7.192800E-07  2.226707E-01  2.682466E-02  9.969091E-03  9.979105E-03
140  -999  -999  -999  -999  1.664261E-10  7.385010E-07  2.226844E-01  2.686327E-02  9.967364E-03  9.985605E-03
141  -999  -999  -999  -999  4.678879E-10  8.783096E-07  2.226039E-01  2.690987E-02  9.963894E-03  1.001263E-02
142  -999  -999  -999  -999  7.431801E-10  9.265714E-07  2.224428E-01  2.691910E-02  9.957592E-03  1.006031E-02
143  -999  -999  -999  -999  8.278813E-10  8.521910E-07  2.224243E-01  2.692707E-02  9.948249E-03  1.005759E-02
144  -999  -999  -999  -999  9.502768E-10  7.373166E-07  2.223379E-01  2.687932E-02  9.935823E-03  1.009433E-02
145  -999  -999  -999  -999  9.151276E-10  6.592209E-07  2.222561E-01  2.684420E-02  9.920895E-03  1.011586E-02
146  -999  -999  -999  -999  7.936453E-10  4.017226E-07  2.221082E-01  2.679050E-02  9.914051E-03  1.016989E-02
147  -999  -999  -999  -999  6.623531E-10  4.346776E-07  2.220136E-01  2.674255E-02  9.906417E-03  1.019019E-02
148  -999  -999  -999  -999  2.888537E-10  4.311196E-07  2.219826E-01  2.672156E-02  9.903558E-03  1.020251E-02
149  -999  -999  -999  -999  1.445456E-10  4.476157E-07  2.219792E-01  2.669459E-02  9.903072E-03  1.020230E-02
150  -999  -999  -999  -999  1.271668E-10  5.111338E-07  2.220478E-01  2.668801E-02  9.902040E-03  1.018217E-02
151  -999  -999  -999  -999  6.030679E-10  6.502179E-07  2.219226E-01  2.665902E-02  9.899796E-03  1.020768E-02
152  -999  -999  -999  -999  8.472867E-10  6.627397E-07  2.217876E-01  2.661407E-02  9.895538E-03  1.024365E-02
153  -999  -999  -999  -999  8.084661E-10  5.556527E-07  2.215517E-01  2.657328E-02  9.888926E-03  1.028895E-02
154  -999  -999  -999  -999  7.918784E-10  4.746332E-07  2.214976E-01  2.654859E-02  9.880251E-03  1.029270E-02
155  -999  -999  -999  -999  6.694045E-10  3.612747E-07  2.212921E-01  2.652077E-02  9.877629E-03  1.031442E-02
156  -999  -999  -999  -999  8.237519E-10  3.769944E-07  2.211316E-01  2.644492E-02  9.872527E-03  1.034563E-02
157  -999  -999  -999  -999  9.248357E-10  3.669171E-07  2.210657E-01  2.643544E-02  9.864154E-03  1.031691E-02
158  -999  -999  -999  -999  9.716678E-10  3.847223E-07  2.210722E-01  2.641976E-02  9.856640E-03  1.030933E-02
159  -999  -999  -999  -999  8.903098E-10  2.857938E-07  2.210144E-01  2.642431E-02  9.852957E-03  1.029778E-02
160  -999  -999  -999  -999  9.793050E-10  2.948812E-07  2.209013E-01  2.641926E-02  9.846556E-03  1.029546E-02
161  -999  -999  -999  -999  1.086012E-09  3.147428E-07  2.208377E-01  2.640656E-02  9.838931E-03  1.030069E-02
162  -999  -999  -999  -999  9.745944E-10  2.558303E-07  2.207357E-01  2.641953E-02  9.835828E-03  1.030456E-02
163  -999  -999  -999  -999  9.399945E-10  2.560128E-07  2.206878E-01  2.642812E-02  9.830122E-03  1.029889E-02
164  -999  -999  -999  -999  9.643184E-10  2.695486E-07  2.206545E-01  2.644897E-02  9.822247E-03  1.029058E-02
165  -999  -999  -999  -999  7.732410E-10  2.300794E-07  2.205886E-01  2.649948E-02  9.819691E-03  1.028050E-02
166  -999  -999  -999  -999  6.627856E-10  2.303436E-07  2.205483E-01  2.648527E-02  9.814613E-03  1.026718E-02
167  -999  -999  -999  -999  6.256498E-10  2.390656E-07  2.205768E-01  2.648446E-02  9.807347E-03  1.025821E-02
168  -999  -999  -999  -999  5.779326E-10  2.577783E-07  2.205476E-01  2.648687E-02  9.801595E-03  1.025362E-02
169  -999  -999  -999  -999  3.991915E-10  1.968293E-07  2.204973E-01  2.649147E-02  9.797873E-03  1.024609E-02
170  -999  -999  -999  -999  3.790584E-10  2.258741E-07  2.204455E-01  2.648834E-02  9.794371E-03  1.024890E-02
171  -999  -999  -999  -999  2.456932E-10  2.220372E-07  2.204180E-01  2.647680E-02  9.792830E-03  1.024661E-02
172  -999  -999  -999  -999  2.128127E-10  2.721848E-07  2.204180E-01  2.649965E-02  9.790189E-03  1.022287E-02
173  -999  -999  -999  -999  1.606994E-10  3.248786E-07  2.204301E-01  2.653130E-02  9.786531E-03  1.021888E-02
174  -999  -999  -999  -999  4.711952E-11  3.061174E-07  2.204602E-01  2.654977E-02  9.785259E-03  1.020591E-02
175  -999  -999  -999  -999  2.025104E-10  3.774619E-07  2.204080E-01  2.654642E-02  9.782795E-03  1.022462E-02
176  -999  -999  -999  -999  2.553073E-10  3.284227E-07  2.203628E-01  2.654682E-02  9.778623E-03  1.022785E-02
177  -999  -999  -999  -999  2.584733E-10  2.906674E-07  2.203385E-01  2.654920E-02  9.772936E-03  1.023304E-02
178  -999  -999  -999  -999  2.608744E-10  2.934490E-07  2.203140E-01  2.653257E-02  9.767628E-03  1.023619E-02
179  -999  -999  -999  -999  1.804688E-10  1.973022E-07  2.203040E-01  2.651015E-02  9.764635E-03  1.024759E-02
180  -999  -999  -999  -999  9.489244E-11  2.234029E-07  2.202936E-01  2.649552E-02  9.762038E-03  1.024609E-02
181  -999  -999  -999  -999  2.761999E-11  2.232251E-07  2.202930E-01  2.649429E-02  9.760736E-03  1.024378E-02
182  -999  -999  -999  -999  2.619027E-10  2.764532E-07  2.202730E-01  2.647873E-02  9.758431E-03  1.024054E-02
183  -999  -999  -999  -999  2.411170E-10  2.345830E-07  2.202642E-01  2.647146E-02  9.754680E-03  1.023993E-02
184  -999  -999  -999  -999  2.761733E-10  2.381879E-07  2.201868E-01  2.645113E-02  9.750332E-03  1.025216E-02
185  -999  -999  -999  -999  2.288214E-10  1.795228E-07  2.201149E-01  2.643050E-02  9.748836E-03  1.027158E-02
186  -999  -999  -999  -999  2.171687E-10  1.802918E-07  2.200796E-01  2.641953E-02  9.746055E-03  1.027804E-02
187  -999  -999  -999  -999  3.750495E-10  2.005863E-07  2.200452E-01  2.640659E-02  9.742605E-03  1.026378E-02
188  -999  -999  -999  -999  3.083654E-10  1.673796E-07  2.200548E-01  2.641281E-02  9.741452E-03  1.025932E-02
189  -999  -999  -999  -999  2.674293E-10  1.680726E-07  2.200843E-01  2.642208E-02  9.739224E-03  1.024356E-02
190  -999  -999  -999  -999  2.931546E-10  1.793518E-07  2.200804E-01  2.643013E-02  9.735944E-03  1.022972E-02
191  -999  -999  -999  -999  3.094879E-10  1.979676E-07  2.200542E-01  2.641913E-02  9.733192E-03  1.023356E-02
192  -999  -999  -999  -999  2.808463E-10  1.498494E-07  2.200042E-01  2.640283E-02  9.731487E-03  1.024636E-02
193  -999  -999  -999  -999  2.742524E-10  1.555186E-07  2.199638E-01  2.639006E-02  9.728785E-03  1.025726E-02
194  -999  -999  -999  -999  2.809917E-10  1.722692E-07  2.199326E-01  2.639131E-02  9.725757E-03  1.026017E-02
195  -999  -999  -999  -999  2.352267E-10  1.373905E-07  2.198966E-01  2.640353E-02  9.724556E-03  1.025832E-02
196  -999  -999  -999  -999  2.365582E-10  1.406844E-07  2.198662E-01  2.640401E-02  9.722324E-03  1.024973E-02
197  -999  -999  -999  -999  2.528562E-10  1.524592E-07  2.198699E-01  2.639883E-02  9.719280E-03  1.024488E-02
198  -999  -999  -999  -999  2.104082E-10  1.276582E-07  2.198740E-01  2.639825E-02  9.718373E-03  1.023897E-02
199  -999  -999  -999  -999  1.927915E-10  1.280536E-07  2.198900E-01  2.639778E-02  9.716559E-03  1.022795E-02
200  -999  -999  -999  -999  1.917446E-10  1.359500E-07  2.199028E-01  2.640563E-02  9.713806E-03  1.021987E-02
201  -999  -999  -999  -999  1.911741E-10  1.497393E-07  2.198916E-01  2.640674E-02  9.711656E-03  1.022015E-02
202  -999  -999  -999  -999  1.587055E-10  1.134107E-07  2.198684E-01  2.640738E-02  9.710308E-03  1.022310E-02
203  -999  -999  -999  -999  1.602616E-10  1.171682E-07  2.198336E-01  2.639644E-02  9.707966E-03  1.022984E-02
204  -999  -999  -999  -999  1.608132E-10  1.294041E-07  2.198053E-01  2.639389E-02  9.705630E-03  1.023481E-02
205  -999  -999  -999  -999  1.261367E-10  1.032080E-07  2.197687E-01  2.639681E-02  9.704635E-03  1.023806E-02
206  -999  -999  -999  -999  1.191355E-10  1.066093E-07  2.197614E-01  2.639708E-02  9.702822E-03  1.023140E-02
207  -999  -999  -999  -999  1.441915E-10  1.187634E-07  2.197749E-01  2.639725E-02  9.700327E-03  1.022184E-02
208  -999  -999  -999  -999  1.181974E-10  9.974932E-08  2.197854E-01  2.640023E-02  9.699577E-03  1.021439E-02
209  -999  -999  -999  -999  9.008617E-11  1.017424E-07  2.197992E-01  2.640467E-02  9.698020E-03  1.021055E-02
210  -999  -999  -999  -999  9.916708E-11  1.125895E-07  2.197695E-01  2.640283E-02  9.695739E-03  1.021313E-02
211  -999  -999  -999  -999  7.671893E-11  9.827045E-08  2.197497E-01  2.639625E-02  9.695132E-03  1.021876E-02
212  -999  -999  -999  -999  5.446263E-11  1.008670E-07  2.197297E-01  2.639821E-02  9.693944E-03  1.022413E-02
213  -999  -999  -999  -999  6.941854E-11  1.157592E-07  2.197205E-01  2.639547E-02  9.692223E-03  1.021875E-02
214  -999  -999  -999  -999  8.343920E-11  1.304537E-07  2.197121E-01  2.639383E-02  9.690477E-03  1.021900E-02
215  -999  -999  -999  -999  5.882784E-11  1.058373E-07  2.197140E-01  2.639778E-02  9.689573E-03  1.021495E-02
216  -999  -999  -999  -999  6.117995E-11  1.140412E-07  2.197052E-01  2.639473E-02  9.687859E-03  1.021200E-02
217  -999  -999  -999  -999  9.126407E-11  1.288874E-07  2.196869E-01  2.639268E-02  9.685758E-03  1.021372E-02
218  -999  -999  -999  -999  6.821657E-11  1.057802E-07  2.196845E-01  2.639061E-02  9.685073E-03  1.021504E-02
219  -999  -999  -999  -999  5.358265E-11  1.076457E-07  2.196963E-01  2.639245E-02  9.683752E-03  1.020546E-02
220  -999  -999  -999  -999  8.706495E-11  1.191156E-07  2.196610E-01  2.638371E-02  9.681889E-03  1.021349E-02
221  -999  -999  -999  -999  8.310296E-11  1.281790E-07  2.196616E-01  2.638484E-02  9.680370E-03  1.021044E-02
222  -999  -999  -999  -999  7.025868E-11  9.506403E-08  2.196582E-01  2.638539E-02  9.679405E-03  1.020715E-02
223  -999  -999  -999  -999  7.713108E-11  1.000506E-07  2.196452E-01  2.637993E-02  9.677750E-03  1.020902E-02
224  -999  -999  -999  -999  9.509144E-11  1.104988E-07  2.196391E-01  2.637610E-02  9.676067E-03  1.020904E-02
225  -999  -999  -999  -999  7.591889E-11  8.629724E-08  2.196305E-01  2.637501E-02  9.675371E-03  1.020869E-02
226  -999  -999  -999  -999  6.864562E-11  8.817466E-08  2.196297E-01  2.637431E-02  9.674142E-03  1.020852E-02
227  -999  -999  -999  -999  1.087160E-10  9.796928E-08  2.196137E-01  2.636760E-02  9.672550E-03  1.020760E-02
228  -999  -999  -999  -999  8.422413E-11  8.052727E-08  2.196090E-01  2.637081E-02  9.672037E-03  1.020795E-02
229  -999  -999  -999  -999  7.059525E-11  8.077000E-08  2.196131E-01  2.637178E-02  9.671003E-03  1.020505E-02
230  -999  -999  -999  -999  8.955441E-11  8.666523E-08  2.195941E-01  2.636796E-02  9.669468E-03  1.020446E-02
231  -999  -999  -999  -999  7.602482E-11  7.393249E-08  2.195896E-01  2.636200E-02  9.669075E-03  1.020671E-02
232  -999  -999  -999  -999  6.166152E-11  7.306380E-08  2.195869E-01  2.636292E-02  9.668308E-03  1.020805E-02
233  -999  -999  -999  -999  5.954742E-11  7.582837E-08  2.195791E-01  2.636775E-02  9.667051E-03  1.020463E-02
234  -999  -999  -999  -999  8.613850E-11  8.408833E-08  2.195663E-01  2.636178E-02  9.665874E-03  1.020597E-02
235  -999  -999  -999  -999  6.837413E-11  6.582137E-08  2.195629E-01  2.636273E-02  9.665309E-03  1.020466E-02
236  -999  -999  -999  -999  5.935072E-11  6.656068E-08  2.195646E-01  2.636424E-02  9.664243E-03  1.020245E-02
237  -999  -999  -999  -999  8.191914E-11  7.360412E-08  2.195555E-01  2.635863E-02  9.662921E-03  1.020306E-02
238  -999  -999  -999  -999  6.617203E-11  5.994881E-08  2.195477E-01  2.635802E-02  9.662487E-03  1.020329E-02
239  -999  -999  -999  -999  5.414307E-11  5.999030E-08  2.195452E-01  2.635992E-02  9.661648E-03  1.020283E-02
240  -999  -999  -999  -999  6.550221E-11  6.492456E-08  2.195325E-01  2.635992E-02  9.660433E-03  1.020112E-02
241  -999  -999  -999  -999  5.544250E-11  5.504882E-08  2.195281E-01  2.635557E-02  9.660105E-03  1.020299E-02
242  -999  -999  -999  -999  4.660921E-11  5.492813E-08  2.195266E-01  2.635590E-02  9.659448E-03  1.020362E-02
243  -999  -999  -999  -999  4.423209E-11  5.731027E-08  2.195252E-01  2.636002E-02  9.658430E-03  1.020032E-02
244  -999  -999  -999  -999  5.589717E-11  6.343618E-08  2.195178E-01  2.635686E-02  9.657558E-03  1.020093E-02
245  -999  -999  -999  -999  4.240564E-11  4.944799E-08  2.195152E-01  2.635697E-02  9.657073E-03  1.020020E-02
246  -999  -999  -999  -999  3.551841E-11  5.072440E-08  2.195146E-01  2.635783E-02  9.656188E-03  1.019915E-02
247  -999  -999  -999  -999  5.062767E-11  5.695198E-08  2.195034E-01  2.635422E-02  9.655248E-03  1.020007E-02
248  -999  -999  -999  -999  3.760122E-11  4.646612E-08  2.195013E-01  2.635451E-02  9.654879E-03  1.019981E-02
249  -999  -999  -999  -999  3.134551E-11  4.726518E-08  2.195041E-01  2.635547E-02  9.654179E-03  1.019808E-02
250  -999  -999  -999  -999  4.783221E-11  5.277808E-08  2.194917E-01  2.635167E-02  9.653306E-03  1.019949E-02
251  -999  -999  -999  -999  3.469018E-11  4.449295E-08  2.194910E-01  2.635366E-02  9.653027E-03  1.019860E-02
252  -999  -999  -999  -999  2.662660E-11  4.439703E-08  2.194932E-01  2.635442E-02  9.652447E-03  1.019713E-02
253  -999  -999  -999  -999  3.946227E-11  4.907065E-08  2.194815E-01  2.634926E-02  9.651601E-03  1.019900E-02
254  -999  -999  -999  -999  3.557281E-11  5.255991E-08  2.194818E-01  2.635032E-02  9.650863E-03  1.019820E-02
255  -999  -999  -999  -999  2.697266E-11  3.955186E-08  2.194823E-01  2.635238E-02  9.650408E-03  1.019664E-02
256  -999  -999  -999  -999  3.200665E-11  4.238268E-08  2.194747E-01  2.634985E-02  9.649620E-03  1.019779E-02
257  -999  -999  -999  -999  3.504047E-11  4.635593E-08  2.194734E-01  2.634887E-02  9.648767E-03  1.019710E-02
258  -999  -999  -999  -999  2.818699E-11  3.674925E-08  2.194696E-01  2.634847E-02  9.648431E-03  1.019682E-02
259  -999  -999  -999  -999  2.664922E-11  3.763387E-08  2.194694E-01  2.634869E-02  9.647793E-03  1.019635E-02
260  -999  -999  -999  -999  3.820689E-11  4.164893E-08  2.194625E-01  2.634612E-02  9.647043E-03  1.019658E-02
261  -999  -999  -999  -999  2.836896E-11  3.434930E-08  2.194604E-01  2.634645E-02  9.646795E-03  1.019708E-02
262  -999  -999  -999  -999  2.335315E-11  3.418840E-08  2.194625E-01  2.634681E-02  9.646313E-03  1.019564E-02
263  -999  -999  -999  -999  3.453076E-11  3.765649E-08  2.194542E-01  2.634355E-02  9.645659E-03  1.019642E-02
264  -999  -999  -999  -999  2.523137E-11  3.237715E-08  2.194535E-01  2.634449E-02  9.645471E-03  1.019655E-02
265  -999  -999  -999  -999  1.961207E-11  3.237056E-08  2.194543E-01  2.634558E-02  9.645092E-03  1.019541E-02
266  -999  -999  -999  -999  3.013322E-11  3.549114E-08  2.194462E-01  2.634203E-02  9.644517E-03  1.019623E-02
267  -999  -999  -999  -999  2.841963E-11  3.752385E-08  2.194462E-01  2.634187E-02  9.643924E-03  1.019610E-02