TITLE     = "Surface mesh and solution"
VARIABLES = "x"
"y"
"z"
"cfx"
"Cp"
DATASETAUXDATA alpha_deg="  0.0000000E+00"
DATASETAUXDATA beta_deg="  0.0000000E+00"
DATASETAUXDATA bref="  0.7500000"
DATASETAUXDATA cref="   1.000000"
DATASETAUXDATA itranflg="           0"
DATASETAUXDATA ivisc="           2"
DATASETAUXDATA mach="  0.2000000"
DATASETAUXDATA reue_mil="   4.600000"
DATASETAUXDATA sref="  0.7500000"
DATASETAUXDATA tinf_r="   521.0000"
DATASETAUXDATA xmc="  0.0000000E+00"
DATASETAUXDATA ymc="  0.0000000E+00"
DATASETAUXDATA zmc="  0.0000000E+00"
ZONE T="USM3D-ME, Pointwise_1.5, Slice: Y=-0.001"
 STRANDID=0, SOLUTIONTIME=0
 Nodes=632, Elements=611, ZONETYPE=FELineSeg
 DATAPACKING=POINT
 DT=(DOUBLE DOUBLE DOUBLE DOUBLE DOUBLE )
 7.461152165E-01 -1.000000000E-03 -6.542559000E-02 1.684760293E-04 4.340443741E-01
 7.440341755E-01 -1.000000000E-03 -6.554373307E-02 1.633503176E-04 4.317464270E-01
 7.438828747E-01 -1.000000000E-03 -6.555229178E-02 1.637937594E-04 4.312944955E-01
 7.442305360E-01 -1.000000000E-03 -6.553262524E-02 1.601412026E-04 4.321927886E-01
 7.443170162E-01 -1.000000000E-03 -6.552772722E-02 1.601800470E-04 4.323370491E-01
 7.447888062E-01 -1.000000000E-03 -6.550099029E-02 1.597738451E-04 4.327911761E-01
 7.445953800E-01 -1.000000000E-03 -6.551196054E-02 1.571721530E-04 4.327645269E-01
 7.450353107E-01 -1.000000000E-03 -6.548700559E-02 1.643701714E-04 4.331222172E-01
 7.424956926E-01 -1.000000000E-03 -6.563052806E-02 1.717134516E-04 4.288271784E-01
 7.428784635E-01 -1.000000000E-03 -6.560897638E-02 1.695336070E-04 4.300700574E-01
 7.432202186E-01 -1.000000000E-03 -6.558971101E-02 1.729328229E-04 4.297789711E-01
 7.435692063E-01 -1.000000000E-03 -6.557001468E-02 1.651497203E-04 4.303394959E-01
 7.421657935E-01 -1.000000000E-03 -6.564907840E-02 1.776069924E-04 4.277842266E-01
 7.420614890E-01 -1.000000000E-03 -6.565494307E-02 1.781829015E-04 4.274698336E-01
 7.415967685E-01 -1.000000000E-03 -6.568103632E-02 1.788072993E-04 4.278728995E-01
 7.410710922E-01 -1.000000000E-03 -6.571050661E-02 1.738962031E-04 4.264936681E-01
 7.405377347E-01 -1.000000000E-03 -6.574035828E-02 1.737725896E-04 4.259961674E-01
 7.399684679E-01 -1.000000000E-03 -6.577216483E-02 1.720016328E-04 4.250602860E-01
 7.386520935E-01 -1.000000000E-03 -6.584549504E-02 1.878441118E-04 4.223761173E-01
 7.393460422E-01 -1.000000000E-03 -6.580687625E-02 1.771869146E-04 4.230757386E-01
 7.455153375E-01 -1.000000000E-03 -6.545973213E-02 1.640274113E-04 4.333005555E-01
 7.455426982E-01 -1.000000000E-03 -6.545817662E-02 1.637071414E-04 4.333143347E-01
 7.460988668E-01 -1.000000000E-03 -6.542652144E-02 1.673746467E-04 4.340164025E-01
 7.447080645E-01 -1.000000000E-03 -6.479242457E-02 -5.017404121E-05 4.319308896E-01
 7.447560416E-01 -1.000000000E-03 -6.480371591E-02 -5.006304114E-05 4.319399361E-01
 7.448357508E-01 -1.000000000E-03 -6.482248094E-02 -4.767523395E-05 4.319997138E-01
 7.443547220E-01 -1.000000000E-03 -6.470926864E-02 -5.474200926E-05 4.315144507E-01
 7.441946246E-01 -1.000000000E-03 -6.467159974E-02 -5.543205245E-05 4.313040654E-01
 7.439793301E-01 -1.000000000E-03 -6.462095489E-02 -5.610936269E-05 4.309097588E-01
 7.432693483E-01 -1.000000000E-03 -6.445400684E-02 -5.059557822E-05 4.301528889E-01
 7.428827948E-01 -1.000000000E-03 -6.436315603E-02 -5.086258539E-05 4.298492715E-01
 7.424984411E-01 -1.000000000E-03 -6.427285296E-02 -5.085140335E-05 4.297117122E-01
 7.455875709E-01 -1.000000000E-03 -6.499951898E-02 -2.772943081E-06 4.327148744E-01
 7.451101640E-01 -1.000000000E-03 -6.488708571E-02 -3.536282280E-05 4.321874232E-01
 7.438696812E-01 -1.000000000E-03 -6.459516438E-02 -5.536535123E-05 4.307987314E-01
 7.436292260E-01 -1.000000000E-03 -6.453861608E-02 -5.527552919E-05 4.304846826E-01
 7.421229860E-01 -1.000000000E-03 -6.418467158E-02 -5.188503685E-05 4.287846712E-01
 7.420623131E-01 -1.000000000E-03 -6.417042182E-02 -5.202437253E-05 4.286300473E-01
 7.416065098E-01 -1.000000000E-03 -6.406341036E-02 -5.459463445E-05 4.289242856E-01
 7.411184157E-01 -1.000000000E-03 -6.394886279E-02 -6.209752406E-05 4.283967300E-01
 7.405932544E-01 -1.000000000E-03 -6.382566707E-02 -6.570635347E-05 4.273546092E-01
 7.399943636E-01 -1.000000000E-03 -6.368523887E-02 -6.121257648E-05 4.265335302E-01
 7.393497448E-01 -1.000000000E-03 -6.353416483E-02 -5.735311764E-05 4.260771385E-01
 7.456035426E-01 -1.000000000E-03 -6.500328142E-02 -1.354805454E-06 4.327348457E-01
 7.461289179E-01 -1.000000000E-03 -6.512706031E-02 1.061154638E-04 4.332918164E-01
 7.461630924E-01 -1.000000000E-03 -6.513511366E-02 1.162108228E-04 4.333125401E-01
 7.379627985E-01 -1.000000000E-03 -6.320938425E-02 -6.333966361E-05 4.247759066E-01
 7.384392733E-01 -1.000000000E-03 -6.332093025E-02 -6.079192579E-05 4.252345385E-01
 7.388813041E-01 -1.000000000E-03 -6.342443613E-02 -5.806331240E-05 4.256112502E-01
 7.371996480E-01 -1.000000000E-03 -6.303083514E-02 -6.048685003E-05 4.243960461E-01
 7.393497448E-01 -1.000000000E-03 -6.353416483E-02 -5.735311764E-05 4.260771385E-01
 6.798805345E-01 -1.000000000E-03 -4.993156359E-02 1.836254701E-04 3.633972416E-01
 6.777726999E-01 -1.000000000E-03 -4.946109770E-02 1.906945407E-04 3.613825770E-01
 6.819133136E-01 -1.000000000E-03 -5.038600636E-02 1.767232893E-04 3.654080447E-01
 6.838784067E-01 -1.000000000E-03 -5.082600047E-02 1.708644029E-04 3.674065754E-01
 6.857814164E-01 -1.000000000E-03 -5.125273610E-02 1.657967409E-04 3.692691178E-01
 6.876304615E-01 -1.000000000E-03 -5.166797801E-02 1.601269576E-04 3.710125162E-01
 6.894326463E-01 -1.000000000E-03 -5.207327458E-02 1.536335538E-04 3.727739531E-01
 6.911929334E-01 -1.000000000E-03 -5.246970146E-02 1.466513527E-04 3.744804204E-01
 6.929170288E-01 -1.000000000E-03 -5.285850901E-02 1.393805015E-04 3.762098359E-01
 6.946104252E-01 -1.000000000E-03 -5.324090690E-02 1.321600758E-04 3.779339844E-01
 6.962775312E-01 -1.000000000E-03 -5.361786650E-02 1.253478450E-04 3.796743857E-01
 6.979223868E-01 -1.000000000E-03 -5.399028130E-02 1.187934886E-04 3.813360115E-01
 6.995483392E-01 -1.000000000E-03 -5.435889261E-02 1.124856940E-04 3.830811076E-01
 7.011574114E-01 -1.000000000E-03 -5.472414499E-02 1.062091509E-04 3.847407908E-01
 7.027512329E-01 -1.000000000E-03 -5.508639592E-02 9.829857448E-05 3.862564447E-01
 7.043306511E-01 -1.000000000E-03 -5.544582665E-02 9.081608316E-05 3.881536900E-01
 7.058957061E-01 -1.000000000E-03 -5.580243542E-02 8.551823392E-05 3.898743135E-01
 7.074463650E-01 -1.000000000E-03 -5.615620382E-02 7.942799634E-05 3.913483866E-01
 7.089823251E-01 -1.000000000E-03 -5.650705180E-02 7.172164976E-05 3.929284192E-01
 7.105034361E-01 -1.000000000E-03 -5.685493388E-02 6.327034300E-05 3.945138117E-01
 7.120100557E-01 -1.000000000E-03 -5.719992079E-02 5.480516455E-05 3.961692773E-01
 7.135024752E-01 -1.000000000E-03 -5.754206859E-02 4.716242362E-05 3.978076830E-01
 7.149810157E-01 -1.000000000E-03 -5.788144047E-02 3.997715280E-05 3.993926477E-01
 7.164460260E-01 -1.000000000E-03 -5.821810645E-02 3.235573889E-05 4.009338621E-01
 7.178968714E-01 -1.000000000E-03 -5.855191060E-02 2.441835904E-05 4.025281609E-01
 7.193326201E-01 -1.000000000E-03 -5.888262783E-02 1.720191877E-05 4.041596690E-01
 7.207522201E-01 -1.000000000E-03 -5.921000435E-02 1.118132988E-05 4.057817474E-01
 7.221536233E-01 -1.000000000E-03 -5.953355525E-02 5.323881388E-06 4.072610880E-01
 7.235345513E-01 -1.000000000E-03 -5.985274015E-02 -1.694936215E-06 4.086833323E-01
 7.248922325E-01 -1.000000000E-03 -6.016690228E-02 -9.390591188E-06 4.101617705E-01
 7.262226707E-01 -1.000000000E-03 -6.047509840E-02 -1.688218692E-05 4.116194290E-01
 7.275258766E-01 -1.000000000E-03 -6.077731114E-02 -2.353015514E-05 4.131068648E-01
 7.287976583E-01 -1.000000000E-03 -6.107254743E-02 -2.935950814E-05 4.145028710E-01
 7.300313641E-01 -1.000000000E-03 -6.135923916E-02 -3.515635075E-05 4.158377183E-01
 7.312208336E-01 -1.000000000E-03 -6.163592715E-02 -4.078245548E-05 4.171638114E-01
 7.323614984E-01 -1.000000000E-03 -6.190151819E-02 -4.510941483E-05 4.185385798E-01
 7.334486929E-01 -1.000000000E-03 -6.215489339E-02 -4.863662128E-05 4.197242377E-01
 7.344783926E-01 -1.000000000E-03 -6.239508085E-02 -5.259618273E-05 4.208582775E-01
 7.354476015E-01 -1.000000000E-03 -6.262134718E-02 -5.628018727E-05 4.219262674E-01
 7.363546716E-01 -1.000000000E-03 -6.283327303E-02 -6.006943239E-05 4.228493019E-01
 -1.789008208E-01 -1.000000000E-03 5.593081075E-02 4.587383999E-03 -3.902986056E-01
 -1.663657652E-01 -1.000000000E-03 5.763322060E-02 4.321628462E-03 -3.730361380E-01
 -1.695556597E-01 -1.000000000E-03 5.723633302E-02 4.385284937E-03 -3.774854842E-01
 -1.727073500E-01 -1.000000000E-03 5.682066428E-02 4.452891010E-03 -3.820523358E-01
 -1.758232612E-01 -1.000000000E-03 5.638558685E-02 4.520173085E-03 -3.862639055E-01
 -1.631312510E-01 -1.000000000E-03 5.801228633E-02 4.258241858E-03 -3.688929477E-01
 -1.598343539E-01 -1.000000000E-03 5.837558004E-02 4.186542924E-03 -3.647241020E-01
 -1.564501214E-01 -1.000000000E-03 5.872546478E-02 4.113793703E-03 -3.599487542E-01
 -1.529534197E-01 -1.000000000E-03 5.906375593E-02 4.048202448E-03 -3.562412965E-01
 4.325539581E-01 -1.000000000E-03 5.065985524E-04 8.986480159E-04 1.757652629E-01
 4.377770730E-01 -1.000000000E-03 -4.629507324E-04 8.873678679E-04 1.795188636E-01
 4.429792141E-01 -1.000000000E-03 -1.432805192E-03 8.757148379E-04 1.833743974E-01
 4.114533248E-01 -1.000000000E-03 4.379900380E-03 9.423878303E-04 1.602647482E-01
 4.167580832E-01 -1.000000000E-03 3.412772521E-03 9.303525490E-04 1.641013085E-01
 4.584811618E-01 -1.000000000E-03 -4.347520177E-03 8.398068355E-04 1.941823127E-01
 4.533293087E-01 -1.000000000E-03 -3.374785702E-03 8.518472856E-04 1.905020203E-01
 4.481624740E-01 -1.000000000E-03 -2.403284911E-03 8.641165563E-04 1.869345628E-01
 4.890694942E-01 -1.000000000E-03 -1.020537606E-02 7.738428928E-04 2.160255755E-01
 4.840169051E-01 -1.000000000E-03 -9.228114535E-03 7.850243831E-04 2.124493889E-01
 4.738519710E-01 -1.000000000E-03 -7.273576275E-03 8.080509640E-04 2.054101320E-01
 4.789438478E-01 -1.000000000E-03 -8.250723017E-03 7.967322813E-04 2.089297620E-01
 4.007899900E-01 -1.000000000E-03 6.310293521E-03 9.661958354E-04 1.522384992E-01
 4.061307275E-01 -1.000000000E-03 5.345748997E-03 9.544462838E-04 1.564094713E-01
 3.792102435E-01 -1.000000000E-03 1.015991833E-02 1.018455511E-03 1.362449860E-01
 3.846421366E-01 -1.000000000E-03 9.198213376E-03 1.005849342E-03 1.403278467E-01
 4.687432465E-01 -1.000000000E-03 -6.297106140E-03 8.184492398E-04 2.017885241E-01
 3.954301288E-01 -1.000000000E-03 7.273626458E-03 9.795490638E-04 1.481225314E-01
 3.900484817E-01 -1.000000000E-03 8.236128580E-03 9.932141649E-04 1.443135622E-01
 4.220440805E-01 -1.000000000E-03 2.444613092E-03 9.190731220E-04 1.677198940E-01
 4.273095799E-01 -1.000000000E-03 1.475822194E-03 9.086139759E-04 1.717249959E-01
 4.636191733E-01 -1.000000000E-03 -5.321649002E-03 8.286633404E-04 1.979350032E-01
 -5.186483702E-02 -1.000000000E-03 6.170359249E-02 2.923520944E-03 -2.486826160E-01
 -4.823024722E-02 -1.000000000E-03 6.161006915E-02 2.888631333E-03 -2.456735414E-01
 -2.567957452E-02 -1.000000000E-03 6.081419510E-02 2.723631862E-03 -2.231788872E-01
 -2.178335590E-02 -1.000000000E-03 6.064106807E-02 2.696603428E-03 -2.189725062E-01
 -6.014608868E-03 -1.000000000E-03 5.984110748E-02 2.586727815E-03 -2.042338392E-01
 -9.971883526E-03 -1.000000000E-03 6.005643774E-02 2.617461085E-03 -2.075414377E-01
 6.329413573E-02 -1.000000000E-03 5.468155441E-02 2.164247311E-03 -1.377237173E-01
 5.839111411E-02 -1.000000000E-03 5.512445593E-02 2.192995796E-03 -1.425764243E-01
 7.322684581E-02 -1.000000000E-03 5.375192057E-02 2.107071700E-03 -1.286134692E-01
 7.823469447E-02 -1.000000000E-03 5.326719970E-02 2.079379649E-03 -1.238045203E-01
 9.844349779E-02 -1.000000000E-03 5.120687757E-02 1.976216339E-03 -1.049441882E-01
 9.336159605E-02 -1.000000000E-03 5.174029612E-02 1.999640695E-03 -1.096454070E-01
 1.087050261E-01 -1.000000000E-03 5.009963501E-02 1.929856346E-03 -9.530898415E-02
 1.138968288E-01 -1.000000000E-03 4.952444168E-02 1.906727281E-03 -9.024631992E-02
 1.244203185E-01 -1.000000000E-03 4.832864990E-02 1.858297407E-03 -8.029670073E-02
 1.191348392E-01 -1.000000000E-03 4.893418327E-02 1.883330071E-03 -8.522837452E-02
 1.570034130E-01 -1.000000000E-03 4.438669189E-02 1.710974267E-03 -5.035505531E-02
 1.514839647E-01 -1.000000000E-03 4.507880507E-02 1.732650041E-03 -5.547289908E-02
 8.830216938E-02 -1.000000000E-03 5.226127652E-02 2.024726001E-03 -1.143225306E-01
 1.625481754E-01 -1.000000000E-03 4.368184874E-02 1.689303159E-03 -4.532468600E-02
 1.681113646E-01 -1.000000000E-03 4.296521184E-02 1.666626119E-03 -4.021771410E-02
 3.502613850E-02 -1.000000000E-03 5.708180133E-02 2.316268724E-03 -1.652131933E-01
 3.063850816E-02 -1.000000000E-03 5.741979982E-02 2.343104016E-03 -1.690890133E-01
 -3.714117594E-02 -1.000000000E-03 6.126385432E-02 2.812405659E-03 -2.339002732E-01
 -3.336332571E-02 -1.000000000E-03 6.112568454E-02 2.780420790E-03 -2.305881318E-01
 -1.392238807E-02 -1.000000000E-03 6.026177997E-02 2.645036847E-03 -2.113929756E-01
 1.035555142E-01 -1.000000000E-03 5.066025841E-02 1.953515397E-03 -1.000743785E-01
 5.896915602E-03 -1.000000000E-03 5.913657973E-02 2.507772430E-03 -1.920522498E-01
 1.916303703E-03 -1.000000000E-03 5.938125256E-02 2.530399268E-03 -1.959441203E-01
 1.351261231E-01 -1.000000000E-03 4.707238732E-02 1.807200948E-03 -7.057526215E-02
 1.297513161E-01 -1.000000000E-03 4.770800535E-02 1.833023990E-03 -7.545730586E-02
 5.354923772E-02 -1.000000000E-03 5.555116816E-02 2.223938937E-03 -1.472438549E-01
 1.392894538E-02 -1.000000000E-03 5.861559562E-02 2.452042079E-03 -1.850018474E-01
 9.897770784E-03 -1.000000000E-03 5.888157201E-02 2.480191378E-03 -1.894364545E-01
 1.405422768E-01 -1.000000000E-03 4.642203483E-02 1.781187185E-03 -6.548702732E-02
 4.409819234E-02 -1.000000000E-03 5.635270786E-02 2.271321930E-03 -1.561065261E-01
 3.951243118E-02 -1.000000000E-03 5.672627969E-02 2.292299395E-03 -1.608605632E-01
 1.848262734E-01 -1.000000000E-03 4.075681229E-02 1.601236125E-03 -2.529504430E-02
 1.792595584E-01 -1.000000000E-03 4.150132544E-02 1.621847065E-03 -3.016777186E-02
 2.213977472E-02 -1.000000000E-03 5.804644929E-02 2.400294932E-03 -1.767918316E-01
 1.800484107E-02 -1.000000000E-03 5.833760843E-02 2.427806080E-03 -1.802670054E-01
 1.459958207E-01 -1.000000000E-03 4.575739506E-02 1.756001044E-03 -6.052057106E-02
 1.736850644E-01 -1.000000000E-03 4.223789976E-02 1.643732329E-03 -3.507724723E-02
 6.824359785E-02 -1.000000000E-03 5.422366665E-02 2.136062579E-03 -1.332807861E-01
 8.326050515E-02 -1.000000000E-03 5.277021529E-02 2.051775909E-03 -1.191247462E-01
 -4.457002776E-02 -1.000000000E-03 6.150577951E-02 2.860714551E-03 -2.408551080E-01
 -4.087589792E-02 -1.000000000E-03 6.139047641E-02 2.840047829E-03 -2.364521275E-01
 2.634647126E-02 -1.000000000E-03 5.774095621E-02 2.370927453E-03 -1.728645990E-01
 4.878077554E-02 -1.000000000E-03 5.596083561E-02 2.250411509E-03 -1.513577768E-01
 -2.954191520E-02 -1.000000000E-03 6.097580598E-02 2.752047143E-03 -2.267366768E-01
 -6.623243798E-02 -1.000000000E-03 6.197086934E-02 3.039123210E-03 -2.629667448E-01
 -6.977740001E-02 -1.000000000E-03 6.201056462E-02 3.075100773E-03 -2.661516974E-01
 -8.022148407E-02 -1.000000000E-03 6.206333434E-02 3.171050063E-03 -2.762607816E-01
 -8.362929629E-02 -1.000000000E-03 6.205893060E-02 3.209358411E-03 -2.803517076E-01
 -7.677611338E-02 -1.000000000E-03 6.205679211E-02 3.137771475E-03 -2.728366241E-01
 -7.329399582E-02 -1.000000000E-03 6.203921828E-02 3.107738372E-03 -2.691145312E-01
 -5.908029748E-02 -1.000000000E-03 6.185870734E-02 2.979079249E-03 -2.549566279E-01
 -6.266531065E-02 -1.000000000E-03 6.192021616E-02 3.005727460E-03 -2.590605602E-01
 -5.548023260E-02 -1.000000000E-03 6.178646978E-02 2.954111113E-03 -2.516063390E-01
 -1.786168364E-02 -1.000000000E-03 6.045678933E-02 2.671575471E-03 -2.150203643E-01
 -2.052297125E-03 -1.000000000E-03 5.961602213E-02 2.555926877E-03 -2.002028059E-01
 -9.034151179E-02 -1.000000000E-03 6.201762547E-02 3.273584435E-03 -2.864067417E-01
 -8.700049300E-02 -1.000000000E-03 6.204367893E-02 3.245552808E-03 -2.832215700E-01
 3.410673593E-01 -1.000000000E-03 -7.578541511E-02 1.435501393E-03 2.128802165E-01
 3.464551992E-01 -1.000000000E-03 -7.580899759E-02 1.425016292E-03 2.139888853E-01
 2.108903866E-01 -1.000000000E-03 -7.352793070E-02 1.691378180E-03 1.894372463E-01
 2.160033769E-01 -1.000000000E-03 -7.368550370E-02 1.679984140E-03 1.899663314E-01
 3.517956307E-01 -1.000000000E-03 -7.582750686E-02 1.413841015E-03 2.154087682E-01
 3.570957737E-01 -1.000000000E-03 -7.584114052E-02 1.403674552E-03 2.169448869E-01
 2.804214876E-01 -1.000000000E-03 -7.516056143E-02 1.546607744E-03 1.997068979E-01
 2.858709123E-01 -1.000000000E-03 -7.524508456E-02 1.535295557E-03 2.007138960E-01
 2.477591697E-01 -1.000000000E-03 -7.452642366E-02 1.612752971E-03 1.941788618E-01
 2.531992240E-01 -1.000000000E-03 -7.464769516E-02 1.601666002E-03 1.950367683E-01
 2.749825479E-01 -1.000000000E-03 -7.507028639E-02 1.557448261E-03 1.986832875E-01
 3.134900952E-01 -1.000000000E-03 -7.558530552E-02 1.481386561E-03 2.062948077E-01
 3.190613010E-01 -1.000000000E-03 -7.563667370E-02 1.472510309E-03 2.074011782E-01
 3.623655428E-01 -1.000000000E-03 -7.585007097E-02 1.391242748E-03 2.180135873E-01
 3.301450250E-01 -1.000000000E-03 -7.572224882E-02 1.456408738E-03 2.103574910E-01
 3.356300982E-01 -1.000000000E-03 -7.575656130E-02 1.445842206E-03 2.113596067E-01
 2.968382770E-01 -1.000000000E-03 -7.539755440E-02 1.512341950E-03 2.029147480E-01
 3.023664046E-01 -1.000000000E-03 -7.546564773E-02 1.501285697E-03 2.040087618E-01
 3.246182498E-01 -1.000000000E-03 -7.568231810E-02 1.464508206E-03 2.089194179E-01
 2.695443402E-01 -1.000000000E-03 -7.497403111E-02 1.568351038E-03 1.977262758E-01
 2.211653090E-01 -1.000000000E-03 -7.383817370E-02 1.668202274E-03 1.905609996E-01
 2.369672497E-01 -1.000000000E-03 -7.426654345E-02 1.635225345E-03 1.926422949E-01
 2.423437517E-01 -1.000000000E-03 -7.439925663E-02 1.624123611E-03 1.933926630E-01
 2.913407905E-01 -1.000000000E-03 -7.532404496E-02 1.523651841E-03 2.017830638E-01
 2.641006409E-01 -1.000000000E-03 -7.487158435E-02 1.579401591E-03 1.967974864E-01
 3.079206871E-01 -1.000000000E-03 -7.552826770E-02 1.490767987E-03 2.051174289E-01
 2.263761693E-01 -1.000000000E-03 -7.398585919E-02 1.656727824E-03 1.912144637E-01
 2.316427937E-01 -1.000000000E-03 -7.412866429E-02 1.645903791E-03 1.919044339E-01
 3.676145167E-01 -1.000000000E-03 -7.585443330E-02 1.379233117E-03 2.197775657E-01
 2.586502964E-01 -1.000000000E-03 -7.476280399E-02 1.590589881E-03 1.958897162E-01
 3.728522865E-01 -1.000000000E-03 -7.585432442E-02 1.369808315E-03 2.211342055E-01
 3.885577741E-01 -1.000000000E-03 -7.582768815E-02 1.339350834E-03 2.253993684E-01
 3.937943672E-01 -1.000000000E-03 -7.581017049E-02 1.330410089E-03 2.269819746E-01
 3.833215506E-01 -1.000000000E-03 -7.584091297E-02 1.348737077E-03 2.237212458E-01
 3.780866743E-01 -1.000000000E-03 -7.584980401E-02 1.359226127E-03 2.221374792E-01
 3.990297982E-01 -1.000000000E-03 -7.578840643E-02 1.320573516E-03 2.281004562E-01
 4.042634063E-01 -1.000000000E-03 -7.576243793E-02 1.311106631E-03 2.299148004E-01
 2.058018365E-01 -1.000000000E-03 -7.336473705E-02 1.702288590E-03 1.890262490E-01
 2.108903866E-01 -1.000000000E-03 -7.352793070E-02 1.691378180E-03 1.894372463E-01
 1.634904404E-01 -1.000000000E-03 -7.174655672E-02 1.788570199E-03 1.860110616E-01
 1.690067941E-01 -1.000000000E-03 -7.198522558E-02 1.778183521E-03 1.863987351E-01
 1.466896462E-01 -1.000000000E-03 -7.096488881E-02 1.825225484E-03 1.854323531E-01
 1.523238934E-01 -1.000000000E-03 -7.123639279E-02 1.812663641E-03 1.854173223E-01
 9.058614542E-02 -1.000000000E-03 -6.769704547E-02 1.953826748E-03 1.874191071E-01
 9.600102959E-02 -1.000000000E-03 -6.806043523E-02 1.941340246E-03 1.868651028E-01
 8.597901965E-04 -1.000000000E-03 -5.985259987E-02 2.189758308E-03 2.046189072E-01
 4.934459128E-03 -1.000000000E-03 -6.029394861E-02 2.177727199E-03 2.032433762E-01
 2.207728684E-02 -1.000000000E-03 -6.205266267E-02 2.137657280E-03 1.987343335E-01
 2.656899049E-02 -1.000000000E-03 -6.248830487E-02 2.123843457E-03 1.971875294E-01
 1.766431161E-02 -1.000000000E-03 -6.161468620E-02 2.149377771E-03 2.003585937E-01
 1.070442243E-01 -1.000000000E-03 -6.876813187E-02 1.917098004E-03 1.863611831E-01
 1.126534258E-01 -1.000000000E-03 -6.911090952E-02 1.903942471E-03 1.859866269E-01
 3.576707844E-02 -1.000000000E-03 -6.334938004E-02 2.097591093E-03 1.957321323E-01
 4.045991377E-02 -1.000000000E-03 -6.377306223E-02 2.085238786E-03 1.945060936E-01
 1.904151014E-01 -1.000000000E-03 -7.283146596E-02 1.734699599E-03 1.875314273E-01
 1.955887447E-01 -1.000000000E-03 -7.301756520E-02 1.723941603E-03 1.881067665E-01
 4.520704461E-02 -1.000000000E-03 -6.419118241E-02 2.073792064E-03 1.934381846E-01
 5.000527698E-02 -1.000000000E-03 -6.460333017E-02 2.060661178E-03 1.923720635E-01
 7.999936500E-02 -1.000000000E-03 -6.695434430E-02 1.979682802E-03 1.882207933E-01
 8.525187047E-02 -1.000000000E-03 -6.732823236E-02 1.966623878E-03 1.878155235E-01
 1.744643687E-01 -1.000000000E-03 -7.221288243E-02 1.767403061E-03 1.866115826E-01
 1.798546383E-01 -1.000000000E-03 -7.242962390E-02 1.755358034E-03 1.867530119E-01
 1.579264966E-01 -1.000000000E-03 -7.149693991E-02 1.800354426E-03 1.856746857E-01
 1.183035493E-01 -1.000000000E-03 -6.944515633E-02 1.891667696E-03 1.856979330E-01
 1.851724290E-01 -1.000000000E-03 -7.263570295E-02 1.744473825E-03 1.870854191E-01
 1.239792618E-01 -1.000000000E-03 -6.977001225E-02 1.879507217E-03 1.855013865E-01
 1.296667475E-01 -1.000000000E-03 -7.008479980E-02 1.865755474E-03 1.855503658E-01
 1.410309560E-01 -1.000000000E-03 -7.068244300E-02 1.838352182E-03 1.856005591E-01
 5.975260810E-02 -1.000000000E-03 -6.540908750E-02 2.032379357E-03 1.913207754E-01
 6.471117191E-02 -1.000000000E-03 -6.580324367E-02 2.020329136E-03 1.904517333E-01
 5.485263976E-02 -1.000000000E-03 -6.500923404E-02 2.045673504E-03 1.917255700E-01
 1.014898441E-01 -1.000000000E-03 -6.841770817E-02 1.929627955E-03 1.865545809E-01
 7.482712182E-02 -1.000000000E-03 -6.657553176E-02 1.993809957E-03 1.889384324E-01
 1.353541829E-01 -1.000000000E-03 -7.038905011E-02 1.851714512E-03 1.856449420E-01
 6.973335518E-02 -1.000000000E-03 -6.619192298E-02 2.007580232E-03 1.896659473E-01
 2.007101287E-01 -1.000000000E-03 -7.319496899E-02 1.712854661E-03 1.886086370E-01
 3.113412746E-02 -1.000000000E-03 -6.292080872E-02 2.110418447E-03 1.964037325E-01
 9.092856284E-03 -1.000000000E-03 -6.073494491E-02 2.168555472E-03 2.018299063E-01
 1.333586931E-02 -1.000000000E-03 -6.117529156E-02 2.159289546E-03 2.010528885E-01
 -3.137330797E-03 -1.000000000E-03 -5.941060068E-02 2.203393254E-03 2.062564968E-01
 -2.490400792E-01 -1.000000000E-03 1.897904842E-02 -3.562132932E-04 7.354407627E-01
 -2.489523226E-01 -1.000000000E-03 1.824309202E-02 -4.810140142E-04 7.766574661E-01
 -2.490930992E-01 -1.000000000E-03 1.976316646E-02 -1.896800528E-04 6.879220685E-01
 -2.490932178E-01 -1.000000000E-03 1.976899900E-02 -1.882233572E-04 6.875464677E-01
 -2.491030581E-01 -1.000000000E-03 2.079341265E-02 9.943618608E-05 6.439238206E-01
 -2.487562381E-01 -1.000000000E-03 2.371997589E-02 1.278910339E-03 4.249040117E-01
 -2.489300859E-01 -1.000000000E-03 2.277396901E-02 9.570790593E-04 4.768267722E-01
 -2.487554191E-01 -1.000000000E-03 2.372414380E-02 1.280560907E-03 4.246723317E-01
 -2.485730401E-01 -1.000000000E-03 2.447748951E-02 1.557922207E-03 3.472793470E-01
 -2.483578751E-01 -1.000000000E-03 2.520229630E-02 1.891908477E-03 2.838685850E-01
 -2.471073252E-01 -1.000000000E-03 1.245781500E-02 -3.507848541E-04 9.613517235E-01
 -2.464595785E-01 -1.000000000E-03 1.125362672E-02 -1.373496981E-04 9.690392647E-01
 -2.481219817E-01 -1.000000000E-03 1.483748546E-02 -6.231554088E-04 9.177705839E-01
 -2.476502368E-01 -1.000000000E-03 1.362801832E-02 -5.097715768E-04 9.434873359E-01
 -2.484826566E-01 -1.000000000E-03 1.597586084E-02 -6.584701480E-04 8.784680174E-01
 -2.487446083E-01 -1.000000000E-03 1.703383898E-02 -6.199184477E-04 8.369445097E-01
 -2.489274306E-01 -1.000000000E-03 1.803938204E-02 -5.164940243E-04 7.895315080E-01
 -2.490486750E-01 -1.000000000E-03 2.178893573E-02 4.952341745E-04 5.566065960E-01
 -2.483041933E-01 -1.000000000E-03 2.538101970E-02 1.986806926E-03 2.698134247E-01
 -2.479434038E-01 -1.000000000E-03 2.636683228E-02 2.444000797E-03 1.924707051E-01
 -2.457024514E-01 -1.000000000E-03 1.002155727E-02 9.801409990E-05 9.695613699E-01
 -2.376938287E-01 -1.000000000E-03 1.363046730E-03 1.421446320E-03 8.408687676E-01
 -2.390525550E-01 -1.000000000E-03 2.533634658E-03 1.318729476E-03 8.602547273E-01
 -2.404817477E-01 -1.000000000E-03 3.854770595E-03 1.191946362E-03 8.860426889E-01
 -1.641196253E-01 -1.000000000E-03 -3.070854325E-02 2.658159097E-03 3.588722673E-01
 -1.607494282E-01 -1.000000000E-03 -3.164375859E-02 2.655122717E-03 3.506557865E-01
 -1.823042530E-01 -1.000000000E-03 -2.520678737E-02 2.642735138E-03 4.081817791E-01
 -1.794345273E-01 -1.000000000E-03 -2.613161375E-02 2.648168127E-03 3.991441560E-01
 -1.988793872E-01 -1.000000000E-03 -1.933992252E-02 2.526173577E-03 4.737740394E-01
 -1.961744419E-01 -1.000000000E-03 -2.036642674E-02 2.549358628E-03 4.613640430E-01
 -1.673619399E-01 -1.000000000E-03 -2.978594772E-02 2.663043165E-03 3.663712395E-01
 -1.496151631E-01 -1.000000000E-03 -3.457558659E-02 2.687514260E-03 3.290949727E-01
 -1.455147500E-01 -1.000000000E-03 -3.559890155E-02 2.686384157E-03 3.214915212E-01
 -1.765175146E-01 -1.000000000E-03 -2.704839295E-02 2.653011366E-03 3.908019416E-01
 -1.735418304E-01 -1.000000000E-03 -2.796069346E-02 2.660816860E-03 3.824710315E-01
 -2.144075741E-01 -1.000000000E-03 -1.274337930E-02 2.287145863E-03 5.661003576E-01
 -2.119445108E-01 -1.000000000E-03 -1.388417698E-02 2.340733272E-03 5.485045035E-01
 -1.414271953E-01 -1.000000000E-03 -3.659129200E-02 2.667038491E-03 3.144729491E-01
 -1.374620390E-01 -1.000000000E-03 -3.752885987E-02 2.643458528E-03 3.084805971E-01
 -1.298794697E-01 -1.000000000E-03 -3.925655699E-02 2.620731923E-03 2.977567306E-01
 -1.262383876E-01 -1.000000000E-03 -4.005731854E-02 2.613565142E-03 2.925615984E-01
 -1.704955239E-01 -1.000000000E-03 -2.887176699E-02 2.665513176E-03 3.741728699E-01
 -2.234873020E-01 -1.000000000E-03 -8.115445238E-03 2.051438947E-03 6.448853384E-01
 -2.213433879E-01 -1.000000000E-03 -9.276964746E-03 2.111159067E-03 6.236554463E-01
 -2.191124419E-01 -1.000000000E-03 -1.043685277E-02 2.170343963E-03 6.038890634E-01
 -1.336141078E-01 -1.000000000E-03 -3.841603188E-02 2.627846574E-03 3.031364909E-01
 -1.572250824E-01 -1.000000000E-03 -3.259722048E-02 2.658483691E-03 3.427472857E-01
 -1.535164270E-01 -1.000000000E-03 -3.357467818E-02 2.672412869E-03 3.361357617E-01
 -1.851349128E-01 -1.000000000E-03 -2.427082206E-02 2.632461881E-03 4.177908501E-01
 -1.907026293E-01 -1.000000000E-03 -2.235522921E-02 2.593670724E-03 4.386321340E-01
 -1.879325634E-01 -1.000000000E-03 -2.332114104E-02 2.616069088E-03 4.279396663E-01
 -1.934490925E-01 -1.000000000E-03 -2.137093083E-02 2.570666703E-03 4.492513788E-01
 -2.015619028E-01 -1.000000000E-03 -1.829046436E-02 2.496058448E-03 4.872830077E-01
 -2.042173811E-01 -1.000000000E-03 -1.721826527E-02 2.460292202E-03 5.012235199E-01
 -2.068392641E-01 -1.000000000E-03 -1.612462594E-02 2.424898962E-03 5.161531934E-01
 -2.094184958E-01 -1.000000000E-03 -1.501224854E-02 2.387038764E-03 5.317222770E-01
 -2.167990456E-01 -1.000000000E-03 -1.159320625E-02 2.229598749E-03 5.845051415E-01
 -2.255434095E-01 -1.000000000E-03 -6.952446026E-03 1.989190058E-03 6.670613938E-01
 -2.275154043E-01 -1.000000000E-03 -5.786160595E-03 1.926317798E-03 6.898557708E-01
 -2.294060383E-01 -1.000000000E-03 -4.615604431E-03 1.866640680E-03 7.135272039E-01
 -2.312184360E-01 -1.000000000E-03 -3.439086944E-03 1.804850549E-03 7.374823765E-01
 -2.346122598E-01 -1.000000000E-03 -1.058550403E-03 1.636370014E-03 7.883674843E-01
 -2.329540062E-01 -1.000000000E-03 -2.253858239E-03 1.730517042E-03 7.626426775E-01
 -2.361927235E-01 -1.000000000E-03 1.474389433E-04 1.535548091E-03 8.135155440E-01
 -2.416870361E-01 -1.000000000E-03 5.058411438E-03 1.039196660E-03 9.141309464E-01
 -2.438930719E-01 -1.000000000E-03 7.548285170E-03 6.030538180E-04 9.516170039E-01
 -2.428382436E-01 -1.000000000E-03 6.303842545E-03 8.409481573E-04 9.354401066E-01
 -2.448479766E-01 -1.000000000E-03 8.787656815E-03 3.476963569E-04 9.644028783E-01
 -1.226729889E-01 -1.000000000E-03 -4.082423526E-02 2.602975588E-03 2.878631248E-01
 -2.457024514E-01 -1.000000000E-03 1.002155727E-02 9.801409990E-05 9.695613699E-01
 -2.346310545E-01 -1.000000000E-03 3.975242364E-02 5.711133263E-03 -3.879759551E-01
 -2.361548364E-01 -1.000000000E-03 3.883283919E-02 5.708146942E-03 -3.853771880E-01
 -2.377699984E-01 -1.000000000E-03 3.777919679E-02 5.674037795E-03 -3.714432904E-01
 -2.071442387E-01 -1.000000000E-03 5.026111295E-02 5.270592288E-03 -4.284840390E-01
 -2.097107013E-01 -1.000000000E-03 4.956870482E-02 5.330902633E-03 -4.312258102E-01
 -2.045228421E-01 -1.000000000E-03 5.092980158E-02 5.202923474E-03 -4.247824044E-01
 -2.428110926E-01 -1.000000000E-03 3.371157117E-02 5.080184020E-03 -2.415453261E-01
 -2.416863967E-01 -1.000000000E-03 3.475352866E-02 5.334731076E-03 -2.793806908E-01
 -2.329711068E-01 -1.000000000E-03 4.068610328E-02 5.766491856E-03 -4.088752076E-01
 -2.018534593E-01 -1.000000000E-03 5.157443485E-02 5.123938235E-03 -4.214428256E-01
 -1.991406158E-01 -1.000000000E-03 5.219505233E-02 5.053350653E-03 -4.172686954E-01
 -2.479434038E-01 -1.000000000E-03 2.636683228E-02 2.444000797E-03 1.924707051E-01
 -2.474899407E-01 -1.000000000E-03 2.739582556E-02 2.864843520E-03 1.139953919E-01
 -2.469556109E-01 -1.000000000E-03 2.842544349E-02 3.294020821E-03 4.374638143E-02
 -2.463398240E-01 -1.000000000E-03 2.945211919E-02 3.749482803E-03 -2.184616116E-02
 -2.456043634E-01 -1.000000000E-03 3.052423792E-02 4.145175753E-03 -8.768734179E-02