TITLE     = "Surface mesh and solution"
VARIABLES = "x"
"y"
"z"
"cfx"
"Cp"
DATASETAUXDATA alpha_deg="  0.0000000E+00"
DATASETAUXDATA beta_deg="  0.0000000E+00"
DATASETAUXDATA bref="  0.7500000"
DATASETAUXDATA cref="   1.000000"
DATASETAUXDATA itranflg="           0"
DATASETAUXDATA ivisc="           2"
DATASETAUXDATA mach="  0.2000000"
DATASETAUXDATA reue_mil="   4.600000"
DATASETAUXDATA sref="  0.7500000"
DATASETAUXDATA tinf_r="   521.0000"
DATASETAUXDATA xmc="  0.0000000E+00"
DATASETAUXDATA ymc="  0.0000000E+00"
DATASETAUXDATA zmc="  0.0000000E+00"
ZONE T="Slice: Y=-0.001"
 STRANDID=0, SOLUTIONTIME=0
 Nodes=319, Elements=313, ZONETYPE=FELineSeg
 DATAPACKING=POINT
 DT=(DOUBLE DOUBLE DOUBLE DOUBLE DOUBLE )
 7.386058150E-01 -1.000000000E-03 -1.302361330E-01 1.635280859E-03 3.286608701E-01
 7.386058150E-01 -1.000000000E-03 -1.302361330E-01 1.635280859E-03 3.286608701E-01
 7.376793178E-01 -1.000000000E-03 -1.299307887E-01 7.153708924E-04 4.116556666E-01
 7.386058150E-01 -1.000000000E-03 -1.302361330E-01 1.635280859E-03 3.286608701E-01
 7.386058150E-01 -1.000000000E-03 -1.302361330E-01 1.635280859E-03 3.286608701E-01
 7.343786496E-01 -1.000000000E-03 -1.301067585E-01 7.680270877E-04 4.066631613E-01
 7.343030019E-01 -1.000000000E-03 -1.301043523E-01 7.671176504E-04 4.065351192E-01
 7.303515320E-01 -1.000000000E-03 -1.299802534E-01 7.453362006E-04 4.053855166E-01
 7.301001588E-01 -1.000000000E-03 -1.299721293E-01 7.415168809E-04 4.052282548E-01
 7.182311269E-01 -1.000000000E-03 -1.295781039E-01 7.260577305E-04 3.990846636E-01
 7.147771092E-01 -1.000000000E-03 -1.294591878E-01 7.560248874E-04 3.967327740E-01
 7.041587714E-01 -1.000000000E-03 -1.290799241E-01 8.090116550E-04 3.915142002E-01
 6.983395544E-01 -1.000000000E-03 -1.288676222E-01 8.270253736E-04 3.891928941E-01
 6.844682828E-01 -1.000000000E-03 -1.283270128E-01 8.798655744E-04 3.840853810E-01
 6.748397477E-01 -1.000000000E-03 -1.279446165E-01 9.265561256E-04 3.809355382E-01
 6.575985700E-01 -1.000000000E-03 -1.272013999E-01 9.594908944E-04 3.749093392E-01
 6.434620664E-01 -1.000000000E-03 -1.265743598E-01 1.009242595E-03 3.706964768E-01
 6.240301314E-01 -1.000000000E-03 -1.256413921E-01 1.031212783E-03 3.659094508E-01
 6.055370420E-01 -1.000000000E-03 -1.247147292E-01 1.065760024E-03 3.616591199E-01
 5.842779226E-01 -1.000000000E-03 -1.235761774E-01 1.072894296E-03 3.574367840E-01
 7.368686251E-01 -1.000000000E-03 -1.301833898E-01 1.043416396E-03 4.130277269E-01
 7.348182526E-01 -1.000000000E-03 -1.301203499E-01 8.046878462E-04 4.076558284E-01
 7.367230742E-01 -1.000000000E-03 -1.301789437E-01 9.528529792E-04 4.117724994E-01
 7.282310615E-01 -1.000000000E-03 -1.299124260E-01 7.187547915E-04 4.042062235E-01
 7.250928368E-01 -1.000000000E-03 -1.298114126E-01 6.901940184E-04 4.022942084E-01
 7.233519365E-01 -1.000000000E-03 -1.297532315E-01 6.919691843E-04 4.015288419E-01
 7.364738875E-01 -1.000000000E-03 -1.295327949E-01 7.095685762E-05 4.093584609E-01
 7.363633880E-01 -1.000000000E-03 -1.294963529E-01 1.482690908E-06 4.090231748E-01
 7.343328212E-01 -1.000000000E-03 -1.288274558E-01 -1.360628091E-04 4.075859256E-01
 7.306025687E-01 -1.000000000E-03 -1.276008061E-01 -1.491997628E-04 4.046642626E-01
 7.343681359E-01 -1.000000000E-03 -1.288390518E-01 -1.354307871E-04 4.076105135E-01
 7.305833314E-01 -1.000000000E-03 -1.275945002E-01 -1.491546503E-04 4.046529375E-01
 7.196037385E-01 -1.000000000E-03 -1.240062507E-01 -1.476097123E-04 3.998229877E-01
 7.162191003E-01 -1.000000000E-03 -1.229046744E-01 -1.579440114E-04 3.984754960E-01
 7.058054538E-01 -1.000000000E-03 -1.195290986E-01 -1.749167417E-04 3.936142801E-01
 7.005257341E-01 -1.000000000E-03 -1.178227158E-01 -1.839224079E-04 3.908313964E-01
 6.859456966E-01 -1.000000000E-03 -1.131482833E-01 -2.023712280E-04 3.837590484E-01
 5.139370622E-01 -1.000000000E-03 -6.075751285E-02 -4.266365812E-05 2.746672836E-01
 5.391705892E-01 -1.000000000E-03 -6.813872129E-02 -1.221080222E-04 2.961064766E-01
 4.756927528E-01 -1.000000000E-03 -4.976333226E-02 4.675693317E-05 2.436262326E-01
 4.512548923E-01 -1.000000000E-03 -4.286165954E-02 9.577428162E-05 2.221089026E-01
 5.065529931E-01 -1.000000000E-03 -5.861791883E-02 -2.407336662E-05 2.690148293E-01
 4.819730681E-01 -1.000000000E-03 -5.155237847E-02 3.116873518E-05 2.489266267E-01
 6.788475904E-01 -1.000000000E-03 -1.108794802E-01 -2.099086221E-04 3.803859531E-01
 6.598226101E-01 -1.000000000E-03 -1.048690271E-01 -2.324474002E-04 3.715418477E-01
 4.417050177E-01 -1.000000000E-03 -4.019069621E-02 1.257044063E-04 2.133952286E-01
 4.169732900E-01 -1.000000000E-03 -3.334166412E-02 2.008103002E-04 1.908648387E-01
 5.504482803E-01 -1.000000000E-03 -7.147048954E-02 -1.472250503E-04 3.050032205E-01
 5.746515575E-01 -1.000000000E-03 -7.868614253E-02 -2.072418519E-04 3.217712555E-01
 6.485494252E-01 -1.000000000E-03 -1.013232027E-01 -2.458268827E-04 3.657446392E-01
 6.276040391E-01 -1.000000000E-03 -9.482267773E-02 -2.555796638E-04 3.539900230E-01
 2.775400145E-01 -1.000000000E-03 3.201193052E-03 4.080459840E-04 4.724750058E-02
 3.012780871E-01 -1.000000000E-03 -2.746546535E-03 3.709975889E-04 7.489706848E-02
 3.137181896E-01 -1.000000000E-03 -5.916184453E-03 3.523083167E-04 8.796812212E-02
 3.357133462E-01 -1.000000000E-03 -1.158500898E-02 3.217087189E-04 1.107103003E-01
 2.431195687E-01 -1.000000000E-03 1.159741100E-02 4.938568648E-04 8.262197791E-03
 2.684038633E-01 -1.000000000E-03 5.459191940E-03 4.241915275E-04 3.680915628E-02
 5.891108438E-01 -1.000000000E-03 -8.304771954E-02 -2.265443903E-04 3.312851708E-01
 6.110549537E-01 -1.000000000E-03 -8.972158865E-02 -2.524240073E-04 3.446251994E-01
 4.037239072E-01 -1.000000000E-03 -2.971804020E-02 2.204826828E-04 1.787356440E-01
 3.812596294E-01 -1.000000000E-03 -2.363351112E-02 2.703340035E-04 1.575373175E-01
 3.483887102E-01 -1.000000000E-03 -1.490208801E-02 3.130490200E-04 1.242705050E-01
 3.686911935E-01 -1.000000000E-03 -2.027177626E-02 2.914437083E-04 1.445446956E-01
 2.350789082E-01 -1.000000000E-03 1.351922343E-02 5.077803228E-04 -1.146364834E-03
 2.070247801E-01 -1.000000000E-03 2.008213512E-02 5.658705005E-04 -3.582410398E-02
 1.985476431E-01 -1.000000000E-03 2.202425984E-02 5.886804760E-04 -4.724760713E-02
 1.682304225E-01 -1.000000000E-03 2.879776303E-02 5.667306391E-04 -9.234157146E-02
 7.348049611E-01 -1.000000000E-03 -1.289829273E-01 -1.057163848E-04 4.079363820E-01
 7.363633880E-01 -1.000000000E-03 -1.294963529E-01 1.482690908E-06 4.090231748E-01
 7.304752464E-01 -1.000000000E-03 -1.275590144E-01 -1.489866571E-04 4.046029775E-01
 7.259064228E-01 -1.000000000E-03 -1.260606610E-01 -1.411342194E-04 4.025222798E-01
 7.233825306E-01 -1.000000000E-03 -1.252362644E-01 -1.442670270E-04 4.014874001E-01
 -2.283439719E-01 -1.000000000E-03 1.494978941E-02 6.405195650E-04 9.714572526E-01
 -2.259771409E-01 -1.000000000E-03 1.321956648E-02 7.495929322E-04 9.554504056E-01
 -2.288781146E-01 -1.000000000E-03 1.535614690E-02 6.094466905E-04 9.752496755E-01
 -2.308892482E-01 -1.000000000E-03 1.692876098E-02 4.855072822E-04 9.877498594E-01
 -2.254376393E-01 -1.000000000E-03 1.283647561E-02 7.741137903E-04 9.514979233E-01
 -2.226790125E-01 -1.000000000E-03 1.095281328E-02 8.717199978E-04 9.312276198E-01
 -2.219882512E-01 -1.000000000E-03 1.049424627E-02 8.945139110E-04 9.260474120E-01
 -2.187562329E-01 -1.000000000E-03 8.435074915E-03 9.754108513E-04 9.039200363E-01
 -2.179940048E-01 -1.000000000E-03 7.962440888E-03 9.948640203E-04 8.983825165E-01
 -2.141149926E-01 -1.000000000E-03 5.656260330E-03 1.079612729E-03 8.717487695E-01
 -2.130947741E-01 -1.000000000E-03 5.067665217E-03 1.100280097E-03 8.647314373E-01
 -2.085311504E-01 -1.000000000E-03 2.542865906E-03 1.180556825E-03 8.335478087E-01
 -2.076145126E-01 -1.000000000E-03 2.049459341E-03 1.195995972E-03 8.276670376E-01
 -2.020091183E-01 -1.000000000E-03 -8.367197632E-04 1.294219496E-03 7.967297882E-01
 -2.008016794E-01 -1.000000000E-03 -1.441974593E-03 1.313012515E-03 7.900463490E-01
 -1.940055663E-01 -1.000000000E-03 -4.684588241E-03 1.401842618E-03 7.567284477E-01
 -1.829423200E-01 -1.000000000E-03 -9.586634119E-03 1.524669924E-03 7.085833275E-01
 -1.731785465E-01 -1.000000000E-03 -1.356827298E-02 1.629464428E-03 6.756097330E-01
 -1.922789006E-01 -1.000000000E-03 -5.483747238E-03 1.422555420E-03 7.488672054E-01
 -1.842482497E-01 -1.000000000E-03 -9.027793383E-03 1.513022563E-03 7.138357840E-01
 -1.707651504E-01 -1.000000000E-03 -1.452275341E-02 1.638553218E-03 6.677250857E-01
 -1.588317411E-01 -1.000000000E-03 -1.898388213E-02 1.678838363E-03 6.322525621E-01
 -1.554187139E-01 -1.000000000E-03 -2.021440725E-02 1.719465721E-03 6.232348198E-01
 -1.413059953E-01 -1.000000000E-03 -2.503109680E-02 1.801057535E-03 5.914675754E-01
 -1.378025098E-01 -1.000000000E-03 -2.618464585E-02 1.774157301E-03 5.839300251E-01
 -1.208837821E-01 -1.000000000E-03 -3.142868023E-02 1.811525672E-03 5.537519987E-01
 -1.158503471E-01 -1.000000000E-03 -3.293597286E-02 1.794330637E-03 5.459349504E-01
 -9.499206828E-02 -1.000000000E-03 -3.877146560E-02 1.784733654E-03 5.162237303E-01
 -8.833817449E-02 -1.000000000E-03 -4.055430820E-02 1.782436128E-03 5.073951503E-01
 -6.452303785E-02 -1.000000000E-03 -4.652545828E-02 1.717529810E-03 4.814745240E-01
 -5.671461441E-02 -1.000000000E-03 -4.838670041E-02 1.722069928E-03 4.740114180E-01
 -3.173372981E-02 -1.000000000E-03 -5.400784364E-02 1.666056906E-03 4.522616194E-01
 -2.260585467E-02 -1.000000000E-03 -5.595305313E-02 1.649493284E-03 4.451752641E-01
 1.831626316E-03 -1.000000000E-03 -6.090152114E-02 1.644143216E-03 4.287125979E-01
 1.245762046E-02 -1.000000000E-03 -6.294633647E-02 1.637135620E-03 4.224327409E-01
 3.986649822E-02 -1.000000000E-03 -6.793157435E-02 1.617723299E-03 4.084972520E-01
 5.395684721E-02 -1.000000000E-03 -7.037782437E-02 1.587005498E-03 4.018288853E-01
 4.965097293E-01 -1.000000000E-03 -1.182001531E-01 9.907303460E-04 3.462202885E-01
 4.704664988E-01 -1.000000000E-03 -1.163958667E-01 1.094906356E-03 3.450907836E-01
 4.637800906E-01 -1.000000000E-03 -1.159166299E-01 1.118740995E-03 3.444919075E-01
 4.391467203E-01 -1.000000000E-03 -1.140949071E-01 1.133968864E-03 3.414309034E-01
 5.026025415E-01 -1.000000000E-03 -1.186091766E-01 9.935244904E-04 3.466475643E-01
 5.307811946E-01 -1.000000000E-03 -1.204293447E-01 9.999418970E-04 3.496034540E-01
 4.282319026E-01 -1.000000000E-03 -1.132599532E-01 1.190515467E-03 3.407711313E-01
 4.041344917E-01 -1.000000000E-03 -1.113554786E-01 1.303113488E-03 3.406535371E-01
 5.411951618E-01 -1.000000000E-03 -1.210738215E-01 1.006698501E-03 3.507980311E-01
 5.670331984E-01 -1.000000000E-03 -1.226077285E-01 1.053550620E-03 3.544377627E-01
 5.842779226E-01 -1.000000000E-03 -1.235761774E-01 1.072894296E-03 3.574367840E-01
 3.888485390E-01 -1.000000000E-03 -1.100976677E-01 1.306716782E-03 3.406572225E-01
 3.667028198E-01 -1.000000000E-03 -1.082211318E-01 1.353975450E-03 3.406303673E-01
 3.325473443E-01 -1.000000000E-03 -1.051593493E-01 1.427305621E-03 3.427359211E-01
 3.536290214E-01 -1.000000000E-03 -1.070714797E-01 1.400032751E-03 3.410521012E-01
 2.971276660E-01 -1.000000000E-03 -1.017684273E-01 1.397200014E-03 3.459511312E-01
 3.194917367E-01 -1.000000000E-03 -1.039401847E-01 1.422116373E-03 3.438187656E-01
 2.596926327E-01 -1.000000000E-03 -9.793076561E-02 1.384020292E-03 3.479938760E-01
 2.836515073E-01 -1.000000000E-03 -1.004219565E-01 1.390871969E-03 3.468801448E-01
 1.103665316E-01 -1.000000000E-03 -7.927999111E-02 1.255049194E-03 3.817446371E-01
 1.119812235E-01 -1.000000000E-03 -7.951618430E-02 1.250781751E-03 3.812349365E-01
 1.415954350E-01 -1.000000000E-03 -8.369574777E-02 1.339921192E-03 3.699684811E-01
 2.162306559E-01 -1.000000000E-03 -9.310003896E-02 1.410585626E-03 3.545127200E-01
 1.879996667E-01 -1.000000000E-03 -8.971789763E-02 1.443279918E-03 3.611039698E-01
 2.245786338E-01 -1.000000000E-03 -9.405972546E-02 1.395414485E-03 3.529850218E-01
 2.502700559E-01 -1.000000000E-03 -9.692084211E-02 1.359834663E-03 3.489490696E-01
 1.488690013E-01 -1.000000000E-03 -8.468283759E-02 1.377239493E-03 3.679191999E-01
 1.788384477E-01 -1.000000000E-03 -8.857740677E-02 1.467631201E-03 3.628497183E-01
 7.744120684E-02 -1.000000000E-03 -7.421843432E-02 1.208454116E-03 3.917501575E-01
 8.213511351E-02 -1.000000000E-03 -7.498797244E-02 1.191862476E-03 3.897132640E-01
 9.814167999E-02 -1.000000000E-03 -7.741946874E-02 1.204102182E-03 3.852534366E-01
 -2.438389462E-01 -1.000000000E-03 3.129615016E-02 -1.968076345E-03 7.406835229E-01
 -2.438830489E-01 -1.000000000E-03 3.137820876E-02 -1.979132011E-03 7.353626269E-01
 -2.447228917E-01 -1.000000000E-03 3.309321630E-02 -2.168005021E-03 6.051969377E-01
 -2.447597938E-01 -1.000000000E-03 3.317725786E-02 -2.167195907E-03 5.982203882E-01
 -2.454521465E-01 -1.000000000E-03 3.495799895E-02 -2.136182646E-03 4.329362677E-01
 -2.454813076E-01 -1.000000000E-03 3.504493190E-02 -2.122174759E-03 4.241203945E-01
 -2.460002229E-01 -1.000000000E-03 3.688353776E-02 -1.803438528E-03 2.153713713E-01
 -2.460203561E-01 -1.000000000E-03 3.697287455E-02 -1.771041825E-03 2.046861190E-01
 -2.463373843E-01 -1.000000000E-03 3.885657471E-02 -1.033683661E-03 -4.428187914E-02
 -2.463828599E-01 -1.000000000E-03 4.199763320E-02 1.153731371E-03 -4.940537246E-01
 -2.463196188E-01 -1.000000000E-03 4.262143568E-02 1.765795280E-03 -6.099716920E-01
 -2.464371783E-01 -1.000000000E-03 4.086190794E-02 1.969635211E-04 -3.349658821E-01
 -2.464354382E-01 -1.000000000E-03 4.097399688E-02 2.894935824E-04 -3.513593184E-01
 -2.463997504E-01 -1.000000000E-03 4.178169387E-02 9.837782256E-04 -4.664608554E-01
 -2.463471168E-01 -1.000000000E-03 3.894746663E-02 -9.781342045E-04 -5.641205412E-02
 -2.428732844E-01 -1.000000000E-03 2.964653121E-02 -1.690439761E-03 8.346276353E-01
 -2.427827693E-01 -1.000000000E-03 2.950290391E-02 -1.668687609E-03 8.419234686E-01
 -2.422970954E-01 -1.000000000E-03 2.876304241E-02 -1.521335058E-03 8.754275688E-01
 -2.421728678E-01 -1.000000000E-03 2.857958297E-02 -1.482383760E-03 8.833640718E-01
 -2.416117448E-01 -1.000000000E-03 2.778330890E-02 -1.306346454E-03 9.123452443E-01
 -2.414822847E-01 -1.000000000E-03 2.760516298E-02 -1.266356404E-03 9.182883687E-01
 -2.408379913E-01 -1.000000000E-03 2.675147820E-02 -1.072917489E-03 9.441035043E-01
 -2.406787293E-01 -1.000000000E-03 2.654686412E-02 -1.024922090E-03 9.489487850E-01
 -2.399452862E-01 -1.000000000E-03 2.564005420E-02 -8.252011899E-04 9.682447531E-01
 -2.397794460E-01 -1.000000000E-03 2.544105599E-02 -7.827101187E-04 9.716666134E-01
 -2.389360158E-01 -1.000000000E-03 2.446698943E-02 -5.810848478E-04 9.877136999E-01
 -2.387205848E-01 -1.000000000E-03 2.422580320E-02 -5.320310274E-04 9.908005155E-01
 -2.377762787E-01 -1.000000000E-03 2.320646858E-02 -3.441717871E-04 9.992940728E-01
 -2.375772441E-01 -1.000000000E-03 2.299773648E-02 -3.014817669E-04 1.000454312E+00
 -2.365033899E-01 -1.000000000E-03 2.191066979E-02 -1.200695718E-04 1.006001389E+00
 -2.362406248E-01 -1.000000000E-03 2.165154048E-02 -7.608208324E-05 1.006025944E+00
 -2.349908250E-01 -1.000000000E-03 2.046400499E-02 1.043478558E-04 1.004006983E+00
 -2.346981703E-01 -1.000000000E-03 2.019356788E-02 1.423515122E-04 1.003421791E+00
 -2.332614776E-01 -1.000000000E-03 1.891261831E-02 2.888900608E-04 9.999577278E-01
 -2.329258312E-01 -1.000000000E-03 1.862165807E-02 3.254821244E-04 9.984225459E-01
 -2.312667692E-01 -1.000000000E-03 1.723603655E-02 4.546118417E-04 9.902034732E-01
 -2.308892482E-01 -1.000000000E-03 1.692876098E-02 4.855072822E-04 9.877498594E-01
 -2.442853790E-01 -1.000000000E-03 3.216202594E-02 -2.100340491E-03 6.773457392E-01
 -2.434078150E-01 -1.000000000E-03 3.052954531E-02 -1.828942738E-03 7.858949046E-01
 -2.443684147E-01 -1.000000000E-03 3.233163411E-02 -2.119358978E-03 6.644580584E-01
 -2.443312116E-01 -1.000000000E-03 3.225149076E-02 -2.113770366E-03 6.707743761E-01
 -2.443272473E-01 -1.000000000E-03 3.224342432E-02 -2.113089564E-03 6.713898987E-01
 -2.443293003E-01 -1.000000000E-03 3.224748130E-02 -2.113465767E-03 6.711280221E-01
 -2.450957218E-01 -1.000000000E-03 3.398946447E-02 -2.194897342E-03 5.245736439E-01
 -2.451659198E-01 -1.000000000E-03 3.416999988E-02 -2.192279973E-03 5.078065591E-01
 -2.451352996E-01 -1.000000000E-03 3.408539558E-02 -2.196792857E-03 5.159361757E-01
 -2.451319609E-01 -1.000000000E-03 3.407684867E-02 -2.197101510E-03 5.167567644E-01
 -2.451337090E-01 -1.000000000E-03 3.408115482E-02 -2.197052929E-03 5.164095417E-01
 -2.457401639E-01 -1.000000000E-03 3.588390518E-02 -2.044017588E-03 3.315921092E-01
 -2.457932734E-01 -1.000000000E-03 3.607206021E-02 -2.012015261E-03 3.102037395E-01
 -2.457709437E-01 -1.000000000E-03 3.598402044E-02 -2.031869334E-03 3.205961330E-01
 -2.457684118E-01 -1.000000000E-03 3.597511124E-02 -2.033660999E-03 3.216478750E-01
 -2.457697616E-01 -1.000000000E-03 3.597960386E-02 -2.032929832E-03 3.212096387E-01
 -2.461894010E-01 -1.000000000E-03 3.783303666E-02 -1.519763643E-03 9.543789844E-02
 -2.462222940E-01 -1.000000000E-03 3.802844441E-02 -1.444013804E-03 6.957624588E-02
 -2.462097525E-01 -1.000000000E-03 3.793721500E-02 -1.484712647E-03 8.227306552E-02
 -2.462081755E-01 -1.000000000E-03 3.792795861E-02 -1.488821774E-03 8.349092655E-02
 -2.462090535E-01 -1.000000000E-03 3.793263253E-02 -1.487032179E-03 8.299892718E-02
 -2.462019380E-01 -1.000000000E-03 4.341204442E-02 2.160061826E-03 -7.017653150E-01
 -2.462019380E-01 -1.000000000E-03 4.341204442E-02 2.160061826E-03 -7.017653150E-01
 -2.464230237E-01 -1.000000000E-03 4.000420484E-02 -4.155759381E-04 -2.069426766E-01
 -2.464137911E-01 -1.000000000E-03 3.981959745E-02 -5.261575616E-04 -1.801083744E-01
 -2.464219042E-01 -1.000000000E-03 3.992741686E-02 -4.633566202E-04 -1.952603203E-01
 -2.464214341E-01 -1.000000000E-03 3.991785915E-02 -4.700888359E-04 -1.939021920E-01
 -2.464217593E-01 -1.000000000E-03 3.992269423E-02 -4.671004926E-04 -1.944109474E-01
 -2.433633334E-01 -1.000000000E-03 3.045270608E-02 -1.815523439E-03 7.903236740E-01
 -2.433816015E-01 -1.000000000E-03 3.048283942E-02 -1.820625287E-03 7.886895467E-01
 -2.433789685E-01 -1.000000000E-03 3.047835306E-02 -1.819872610E-03 7.889377546E-01
 -2.433802773E-01 -1.000000000E-03 3.048052816E-02 -1.820177235E-03 7.888456580E-01
 -2.399448179E-01 -1.000000000E-03 5.389366062E-02 9.380046120E-03 -1.547277366E+00
 -2.405845674E-01 -1.000000000E-03 5.330107556E-02 9.157091485E-03 -1.549216542E+00
 -2.398316360E-01 -1.000000000E-03 5.399455442E-02 9.389620314E-03 -1.547259540E+00
 -2.391906796E-01 -1.000000000E-03 5.454537364E-02 9.440170856E-03 -1.551684930E+00
 -2.406632363E-01 -1.000000000E-03 5.322533060E-02 9.141753982E-03 -1.548187087E+00
 -2.419933178E-01 -1.000000000E-03 5.183151730E-02 8.671862019E-03 -1.516440357E+00
 -2.420513383E-01 -1.000000000E-03 5.176521112E-02 8.648430737E-03 -1.513972277E+00
 -2.432407687E-01 -1.000000000E-03 5.026547553E-02 7.920866696E-03 -1.444329537E+00
 -2.432920877E-01 -1.000000000E-03 5.019396130E-02 7.882143172E-03 -1.440148501E+00
 -2.443224292E-01 -1.000000000E-03 4.858103533E-02 6.874553697E-03 -1.327663914E+00
 -2.443657048E-01 -1.000000000E-03 4.850452959E-02 6.815926758E-03 -1.321071937E+00
 -2.458390955E-01 -1.000000000E-03 4.498059284E-02 3.856944826E-03 -9.199939558E-01
 -2.452398489E-01 -1.000000000E-03 4.670428922E-02 5.372414712E-03 -1.130640894E+00
 -2.458924497E-01 -1.000000000E-03 4.478855050E-02 3.658490537E-03 -8.992832062E-01
 -2.460435028E-01 -1.000000000E-03 4.418920849E-02 3.225906960E-03 -7.889413312E-01
 -2.452060538E-01 -1.000000000E-03 4.678524461E-02 5.451400305E-03 -1.139850972E+00
 -2.390543181E-01 -1.000000000E-03 5.465851738E-02 9.437843670E-03 -1.553199880E+00
 -2.383814240E-01 -1.000000000E-03 5.519695076E-02 9.302574149E-03 -1.553219039E+00
 -2.382517106E-01 -1.000000000E-03 5.529754498E-02 9.274859100E-03 -1.552764586E+00
 -2.375156387E-01 -1.000000000E-03 5.584737612E-02 9.196713343E-03 -1.537364316E+00
 -2.373454343E-01 -1.000000000E-03 5.597063383E-02 9.180407574E-03 -1.533955741E+00
 -2.365291640E-01 -1.000000000E-03 5.653910795E-02 9.134425986E-03 -1.521837991E+00
 -2.363490157E-01 -1.000000000E-03 5.666046065E-02 9.119410541E-03 -1.520179960E+00
 -2.354527566E-01 -1.000000000E-03 5.724146514E-02 9.022152962E-03 -1.504624670E+00
 -2.352463619E-01 -1.000000000E-03 5.737068965E-02 8.983632327E-03 -1.501191231E+00
 -2.342178273E-01 -1.000000000E-03 5.798897988E-02 8.788071132E-03 -1.480982321E+00
 -2.340526858E-01 -1.000000000E-03 5.808492011E-02 8.759771678E-03 -1.478189843E+00
 -2.328689798E-01 -1.000000000E-03 5.874358720E-02 8.597978509E-03 -1.457116719E+00
 -2.326300860E-01 -1.000000000E-03 5.887171618E-02 8.556153323E-03 -1.452950805E+00
 -2.313533884E-01 -1.000000000E-03 5.952711121E-02 8.309125836E-03 -1.424883555E+00
 -2.311121883E-01 -1.000000000E-03 5.964655395E-02 8.272689230E-03 -1.420006554E+00
 -2.297110695E-01 -1.000000000E-03 6.031060937E-02 8.128334517E-03 -1.393007771E+00
 -2.293840970E-01 -1.000000000E-03 6.046017217E-02 8.095646146E-03 -1.388161674E+00
 -2.278057299E-01 -1.000000000E-03 6.114773930E-02 7.910847042E-03 -1.361459246E+00
 -2.274456550E-01 -1.000000000E-03 6.129856309E-02 7.853297011E-03 -1.356272695E+00
 -2.256764156E-01 -1.000000000E-03 6.200333196E-02 7.575883424E-03 -1.326142162E+00
 -2.252794998E-01 -1.000000000E-03 6.215498332E-02 7.507409402E-03 -1.319540649E+00
 -2.231826071E-01 -1.000000000E-03 6.291305859E-02 7.155299374E-03 -1.283199939E+00
 -2.228412889E-01 -1.000000000E-03 6.303142867E-02 7.102383327E-03 -1.278192247E+00
 -2.202807623E-01 -1.000000000E-03 6.386618789E-02 6.817428263E-03 -1.243274232E+00
 -2.197293990E-01 -1.000000000E-03 6.403734098E-02 6.742489631E-03 -1.236470025E+00
 -2.168547938E-01 -1.000000000E-03 6.487119741E-02 6.409475634E-03 -1.199419874E+00
 -2.162228376E-01 -1.000000000E-03 6.504476312E-02 6.321523910E-03 -1.191746111E+00
 -2.131232651E-01 -1.000000000E-03 6.583760386E-02 6.063399320E-03 -1.151202167E+00
 -2.122212796E-01 -1.000000000E-03 6.605501443E-02 5.970893002E-03 -1.140382978E+00
 -2.087921261E-01 -1.000000000E-03 6.681975589E-02 5.765228017E-03 -1.108009158E+00
 -2.074108551E-01 -1.000000000E-03 6.710760167E-02 5.627642869E-03 -1.095005689E+00
 -2.462019380E-01 -1.000000000E-03 4.341204442E-02 2.160061826E-03 -7.017653150E-01
 -2.411813664E-01 -1.000000000E-03 5.270499528E-02 8.914114563E-03 -1.540449017E+00
 -2.415079891E-01 -1.000000000E-03 5.236146472E-02 8.798788985E-03 -1.532493186E+00
 -2.413410458E-01 -1.000000000E-03 5.254416788E-02 8.886920286E-03 -1.537379863E+00
 -2.413220155E-01 -1.000000000E-03 5.256416322E-02 8.896261305E-03 -1.538425000E+00
 -2.413314996E-01 -1.000000000E-03 5.255445511E-02 8.887888007E-03 -1.537738630E+00
 -2.424899116E-01 -1.000000000E-03 5.123862542E-02 8.341418958E-03 -1.493851541E+00
 -2.428076175E-01 -1.000000000E-03 5.083796850E-02 8.145920780E-03 -1.475261416E+00
 -2.426581474E-01 -1.000000000E-03 5.103604031E-02 8.268863723E-03 -1.485401834E+00
 -2.426409779E-01 -1.000000000E-03 5.105774297E-02 8.281218250E-03 -1.486729173E+00
 -2.426495755E-01 -1.000000000E-03 5.104719796E-02 8.273082566E-03 -1.485865544E+00
 -2.436757571E-01 -1.000000000E-03 4.962731996E-02 7.471558421E-03 -1.406947708E+00
 -2.439520575E-01 -1.000000000E-03 4.919470295E-02 7.200007564E-03 -1.376788752E+00
 -2.438236078E-01 -1.000000000E-03 4.940820943E-02 7.358385232E-03 -1.393561273E+00
 -2.438086810E-01 -1.000000000E-03 4.943164544E-02 7.374971668E-03 -1.395146686E+00
 -2.438162081E-01 -1.000000000E-03 4.942024502E-02 7.364914994E-03 -1.393975388E+00
 -2.446836989E-01 -1.000000000E-03 4.790015541E-02 6.247737774E-03 -1.267743787E+00
 -2.456069724E-01 -1.000000000E-03 4.571833030E-02 4.331693722E-03 -1.019816949E+00
 -2.454816495E-01 -1.000000000E-03 4.606759044E-02 4.664060710E-03 -1.060798200E+00
 -2.455750113E-01 -1.000000000E-03 4.582108077E-02 4.430509141E-03 -1.032780190E+00
 -2.455685307E-01 -1.000000000E-03 4.583989298E-02 4.450269000E-03 -1.035199944E+00
 -2.449102881E-01 -1.000000000E-03 4.743644852E-02 5.880801509E-03 -1.218769798E+00
 -2.448070154E-01 -1.000000000E-03 4.766477091E-02 6.073017724E-03 -1.246198747E+00
 -2.447947839E-01 -1.000000000E-03 4.768989465E-02 6.094473243E-03 -1.248735499E+00
 -2.448010226E-01 -1.000000000E-03 4.767765413E-02 6.081254031E-03 -1.247134864E+00
 -2.462019380E-01 -1.000000000E-03 4.341204442E-02 2.160061826E-03 -7.017653150E-01
 -2.028067588E-01 -1.000000000E-03 6.797755787E-02 5.132435021E-03 -1.051102798E+00
 -2.074108551E-01 -1.000000000E-03 6.710760167E-02 5.627642869E-03 -1.095005689E+00
 -2.023112983E-01 -1.000000000E-03 6.806444127E-02 5.081984594E-03 -1.046914553E+00
 -1.697481723E-01 -1.000000000E-03 7.151813994E-02 3.695083297E-03 -8.334456734E-01
 -1.687701650E-01 -1.000000000E-03 7.157175836E-02 3.671814238E-03 -8.288408600E-01
 -1.576245963E-01 -1.000000000E-03 7.199564512E-02 3.474041233E-03 -7.793625582E-01
 -1.555918376E-01 -1.000000000E-03 7.205058384E-02 3.429447848E-03 -7.705042816E-01
 -1.424716876E-01 -1.000000000E-03 7.216128512E-02 3.143344114E-03 -7.163582153E-01
 -1.386981557E-01 -1.000000000E-03 7.214792210E-02 3.075353262E-03 -7.020740166E-01
 -1.237708265E-01 -1.000000000E-03 7.183842897E-02 2.823527389E-03 -6.505169871E-01
 -1.204655326E-01 -1.000000000E-03 7.173447570E-02 2.703355842E-03 -6.399097629E-01
 -1.026700890E-01 -1.000000000E-03 7.086559872E-02 2.433528045E-03 -5.933956306E-01
 -9.693670547E-02 -1.000000000E-03 7.052985141E-02 2.414410450E-03 -5.790900895E-01
 -7.525868054E-02 -1.000000000E-03 6.885959527E-02 2.240454589E-03 -5.235001335E-01
 -6.894020488E-02 -1.000000000E-03 6.830393355E-02 2.193554714E-03 -5.078250675E-01
 -4.434097034E-02 -1.000000000E-03 6.574302178E-02 1.905032371E-03 -4.527086309E-01
 -3.551644193E-02 -1.000000000E-03 6.471674293E-02 1.839094190E-03 -4.343778040E-01
 -1.024378910E-02 -1.000000000E-03 6.145483661E-02 1.603770591E-03 -3.821774306E-01
 -1.682834925E-03 -1.000000000E-03 6.025005619E-02 1.547694756E-03 -3.655755701E-01
 2.314237343E-02 -1.000000000E-03 5.650874019E-02 1.378728724E-03 -3.214022422E-01
 3.447590554E-02 -1.000000000E-03 5.468519237E-02 1.328218626E-03 -3.013161886E-01
 6.152387341E-02 -1.000000000E-03 5.005532774E-02 1.201635012E-03 -2.511364101E-01
 7.542689356E-02 -1.000000000E-03 4.755802298E-02 1.154192181E-03 -2.275157470E-01
 1.323049860E-01 -1.000000000E-03 3.644624231E-02 6.331402394E-04 -1.444548604E-01
 1.626692728E-01 -1.000000000E-03 3.000742668E-02 5.705617041E-04 -1.002426057E-01
 1.313114377E-01 -1.000000000E-03 3.665178232E-02 6.346253256E-04 -1.459361002E-01
 1.682304225E-01 -1.000000000E-03 2.879776303E-02 5.667306391E-04 -9.234157146E-02
 -2.001511303E-01 -1.000000000E-03 6.840573539E-02 4.820600031E-03 -1.026065800E+00
 -1.968487914E-01 -1.000000000E-03 6.893208711E-02 4.507029668E-03 -9.951014629E-01
 -1.960638485E-01 -1.000000000E-03 6.904114934E-02 4.473226194E-03 -9.889496357E-01
 -1.894283374E-01 -1.000000000E-03 6.989370740E-02 4.006931081E-03 -9.482707380E-01
 -1.816968520E-01 -1.000000000E-03 7.065831260E-02 3.662717065E-03 -8.948226954E-01
 -1.742546499E-01 -1.000000000E-03 7.120722952E-02 3.621419435E-03 -8.557992768E-01
 -1.799786066E-01 -1.000000000E-03 7.082190358E-02 3.595848324E-03 -8.848624723E-01
 9.860642678E-02 -1.000000000E-03 4.316584421E-02 7.347438700E-04 -1.914474360E-01
 1.036363846E-01 -1.000000000E-03 4.221611467E-02 7.005477042E-04 -1.839435763E-01
 1.228242803E-01 -1.000000000E-03 3.835691451E-02 6.420594966E-04 -1.575465575E-01
 4 1
 1 2
 2 3
 3 27
 27 28
 22 6
 6 7
 7 8
 8 9
 9 24
 24 25
 25 26
 26 10
 10 11
 11 12
 12 13
 13 14
 14 15
 15 16
 16 17
 17 18
 18 19
 19 20
 23 22
 4 5
 5 21
 21 23
 29 31
 31 68
 68 69
 30 29
 32 30
 32 70
 70 71
 71 72
 72 33
 33 34
 34 35
 35 36
 36 37
 37 44
 44 45
 45 50
 50 51
 51 59
 59 58
 58 49
 49 48
 48 39
 39 38
 38 42
 42 43
 43 40
 40 41
 41 46
 46 47
 47 60
 60 61
 61 63
 63 62
 62 55
 55 54
 54 53
 53 52
 52 57
 57 56
 56 64
 64 65
 65 66
 66 67
 73 75
 75 76
 77 74
 74 73
 79 78
 78 77
 81 80
 80 79
 83 82
 82 81
 85 84
 84 83
 87 86
 86 85
 87 88
 88 91
 91 92
 92 89
 89 90
 90 93
 93 94
 94 95
 95 96
 96 97
 97 98
 98 99
 99 100
 100 101
 101 102
 102 103
 103 104
 104 105
 105 106
 106 107
 107 108
 108 109
 109 138
 138 139
 139 140
 140 129
 129 130
 130 131
 131 136
 136 137
 137 133
 133 132
 132 134
 134 135
 135 127
 127 128
 128 125
 125 126
 126 123
 123 124
 124 122
 122 121
 121 117
 117 116
 116 113
 113 112
 112 111
 111 110
 110 114
 114 115
 115 118
 118 119
 119 120
 141 142
 142 178
 178 182
 182 183
 183 181
 181 180
 180 143
 143 144
 144 184
 184 187
 187 188
 188 186
 186 185
 185 145
 145 146
 146 189
 189 192
 192 193
 193 191
 191 190
 190 147
 147 148
 148 194
 194 197
 197 198
 198 196
 196 195
 195 149
 149 155
 155 202
 202 204
 204 205
 205 203
 203 201
 201 152
 152 153
 153 154
 154 150
 150 151
 151 199
 199 200
 141 179
 179 207
 207 209
 209 208
 208 206
 206 156
 156 157
 157 158
 158 159
 159 160
 160 161
 161 162
 162 163
 163 164
 164 165
 165 166
 166 167
 167 168
 168 169
 169 170
 170 171
 171 172
 172 173
 173 174
 174 175
 175 176
 176 177
 210 212
 212 213
 213 226
 226 227
 227 228
 228 229
 229 230
 230 231
 231 232
 232 233
 233 234
 234 235
 235 236
 236 237
 237 238
 238 239
 239 240
 240 241
 241 242
 242 243
 243 244
 244 245
 245 246
 246 247
 247 248
 248 249
 249 250
 250 251
 251 252
 252 253
 253 254
 254 255
 255 256
 280 273
 273 220
 220 219
 219 269
 269 270
 270 272
 272 271
 271 268
 268 218
 218 217
 217 264
 264 265
 265 267
 267 266
 266 263
 263 216
 216 215
 215 259
 259 260
 260 262
 262 261
 261 258
 258 214
 214 211
 211 210
 257 282
 282 224
 224 223
 223 221
 221 274
 274 276
 276 277
 277 275
 275 222
 222 225
 225 278
 278 279
 279 281
 281 280
 283 285
 285 310
 310 311
 311 312
 312 313
 313 314
 314 316
 316 315
 315 286
 286 287
 287 288
 288 289
 289 290
 290 291
 291 292
 292 293
 293 294
 294 295
 295 296
 296 297
 297 298
 298 299
 299 300
 300 301
 301 302
 302 303
 303 304
 304 305
 305 317
 317 318
 318 319
 319 308
 308 306
 306 307
 307 309