TITLE     = "Surface mesh and solution"
VARIABLES = "x"
"y"
"z"
"cfx"
"Cp"
DATASETAUXDATA alpha_deg="  0.0000000E+00"
DATASETAUXDATA beta_deg="  0.0000000E+00"
DATASETAUXDATA bref="  0.7500000"
DATASETAUXDATA cref="   1.000000"
DATASETAUXDATA itranflg="           0"
DATASETAUXDATA ivisc="           2"
DATASETAUXDATA mach="  0.2000000"
DATASETAUXDATA reue_mil="   4.600000"
DATASETAUXDATA sref="  0.7500000"
DATASETAUXDATA tinf_r="   521.0000"
DATASETAUXDATA xmc="  0.0000000E+00"
DATASETAUXDATA ymc="  0.0000000E+00"
DATASETAUXDATA zmc="  0.0000000E+00"
ZONE T="Slice: Y=-0.73"
STRANDID=0, SOLUTIONTIME=0
Nodes=553, Elements=553, ZONETYPE=FELineSeg
DATAPACKING=POINT
DT=(DOUBLE DOUBLE DOUBLE DOUBLE DOUBLE )
0.662634 -0.730000 -0.069573 0.002210	0.236289
0.664303 -0.730000 -0.069501 0.002219	0.236540
0.669874 -0.730000 -0.069257 0.002129	0.242397
0.674946 -0.730000 -0.069035 0.002043	0.244297
0.684344 -0.730000 -0.068606 0.002015	0.252330
0.685861 -0.730000 -0.068537 0.002009	0.253043
0.686422 -0.730000 -0.068510 0.002002	0.253562
0.697911 -0.730000 -0.067964 0.001955	0.258835
0.705891 -0.730000 -0.067571 0.001897	0.268571
0.707543 -0.730000 -0.067489 0.001879	0.270241
0.714830 -0.730000 -0.067118 0.001800	0.274877
0.718585 -0.730000 -0.066924 0.001781	0.279146
0.725792 -0.730000 -0.066545 0.001710	0.285368
0.730066 -0.730000 -0.066315 0.001676	0.290119
0.735459 -0.730000 -0.066022 0.001622	0.294818
0.738676 -0.730000 -0.065844 0.001531	0.297612
0.740434 -0.730000 -0.065746 0.001505	0.300264
0.742269 -0.730000 -0.065643 0.001488	0.301859
0.742910 -0.730000 -0.065607 0.001467	0.303412
0.744416 -0.730000 -0.065522 0.001346	0.307945
0.744603 -0.730000 -0.065512 0.001334	0.308602
0.745667 -0.730000 -0.065451 0.001211	0.317507
0.745834 -0.730000 -0.065442 0.001181	0.319261
0.746531 -0.730000 -0.065402 0.001058	0.326040
0.746828 -0.730000 -0.065385 0.000974	0.320286
0.746928 -0.730000 -0.065380 0.000953	0.319263
0.746950 -0.730000 -0.065378 0.000945	0.318287
0.747045 -0.730000 -0.065373 0.000503	0.318862
0.747146 -0.730000 -0.065367 0.000089	0.317019
0.747085 -0.730000 -0.065352 0.000192	0.306722
0.746998 -0.730000 -0.065332 0.000370	0.291289
0.746951 -0.730000 -0.065321 0.000376	0.289980
0.746733 -0.730000 -0.065269 0.000390	0.295620
0.746492 -0.730000 -0.065213 0.000396	0.296516
0.746230 -0.730000 -0.065151 0.000407	0.296759
0.745685 -0.730000 -0.065023 0.000439	0.293933
0.745199 -0.730000 -0.064908 0.000460	0.291428
0.742051 -0.730000 -0.064168 0.000624	0.276447
0.741964 -0.730000 -0.064147 0.000628	0.276144
0.741841 -0.730000 -0.064119 0.000631	0.275758
0.736073 -0.730000 -0.062769 0.000773	0.251214
0.734470 -0.730000 -0.062393 0.000812	0.244462
0.734433 -0.730000 -0.062385 0.000813	0.244342
0.724850 -0.730000 -0.060157 0.001029	0.223301
0.719945 -0.730000 -0.059027 0.001145	0.213031
0.711997 -0.730000 -0.057197 0.001292	0.202101
0.703183 -0.730000 -0.055187 0.001363	0.189609
0.699613 -0.730000 -0.054373 0.001377	0.187734
0.692472 -0.730000 -0.052760 0.001434	0.179700
0.689062 -0.730000 -0.051990 0.001464	0.177582
0.683607 -0.730000 -0.050768 0.001546	0.173763
0.678158 -0.730000 -0.049547 0.001620	0.171551
0.677373 -0.730000 -0.049372 0.001626	0.171544
0.668146 -0.730000 -0.047324 0.001706	0.168455
0.665719 -0.730000 -0.046785 0.001721	0.168088
0.665071 -0.730000 -0.046643 0.001719	0.167733
0.653851 -0.730000 -0.044175 0.001600	0.168166
0.643899 -0.730000 -0.042006 0.001546	0.163998
0.640729 -0.730000 -0.041316 0.001491	0.163290
0.637599 -0.730000 -0.040640 0.001515	0.161639
0.625674 -0.730000 -0.038070 0.001453	0.158518
0.620376 -0.730000 -0.036938 0.001448	0.157952
0.609309 -0.730000 -0.034582 0.001461	0.156785
0.596402 -0.730000 -0.031863 0.001334	0.155130
0.593514 -0.730000 -0.031256 0.001294	0.155043
0.591834 -0.730000 -0.030905 0.001319	0.154836
0.578374 -0.730000 -0.028104 0.001434	0.153699
0.576375 -0.730000 -0.027690 0.001398	0.153415
0.564799 -0.730000 -0.025306 0.001244	0.153427
0.561839 -0.730000 -0.024701 0.001264	0.153593
0.552385 -0.730000 -0.022772 0.001282	0.154936
0.538808 -0.730000 -0.020028 0.001269	0.152922
0.538013 -0.730000 -0.019868 0.001267	0.152949
0.529071 -0.730000 -0.018081 0.001285	0.152589
0.521644 -0.730000 -0.016597 0.001297	0.152359
0.521310 -0.730000 -0.016530 0.001294	0.152299
0.517037 -0.730000 -0.015687 0.001257	0.151897
0.505185 -0.730000 -0.013348 0.001145	0.151018
0.503677 -0.730000 -0.013052 0.001131	0.150994
0.488571 -0.730000 -0.010110 0.001115	0.150706
0.484690 -0.730000 -0.009359 0.001123	0.150487
0.468731 -0.730000 -0.006296 0.001147	0.148056
0.466222 -0.730000 -0.005817 0.001150	0.147729
0.459864 -0.730000 -0.004616 0.001118	0.147400
0.448300 -0.730000 -0.002429 0.001068	0.146867
0.441879 -0.730000 -0.001231 0.001059	0.145712
0.430342 -0.730000 0.000915 0.001053	0.142649
0.421973 -0.730000 0.002449 0.001060	0.142043
0.411786 -0.730000 0.004319 0.001109	0.139269
0.407736 -0.730000 0.005049 0.001152	0.138632
0.396703 -0.730000 0.007043 0.001253	0.137369
0.383006 -0.730000 0.009488 0.001378	0.136018
0.381610 -0.730000 0.009735 0.001377	0.135789
0.368027 -0.730000 0.012125 0.001163	0.132373
0.358713 -0.730000 0.013740 0.001169	0.129647
0.353317 -0.730000 0.014674 0.001195	0.127532
0.348394 -0.730000 0.015516 0.001209	0.126046
0.340007 -0.730000 0.016950 0.001218	0.122327
0.331377 -0.730000 0.018404 0.001148	0.120253
0.326116 -0.730000 0.019290 0.001148	0.118340
0.321041 -0.730000 0.020131 0.001183	0.116880
0.311711 -0.730000 0.021677 0.001249	0.113386
0.298791 -0.730000 0.023783 0.001282	0.110369
0.297830 -0.730000 0.023940 0.001284	0.110048
0.295513 -0.730000 0.024310 0.001307	0.109293
0.284475 -0.730000 0.026078 0.001367	0.104071
0.282824 -0.730000 0.026340 0.001396	0.103429
0.269392 -0.730000 0.028450 0.001453	0.098246
0.267990 -0.730000 0.028667 0.001443	0.098011
0.256915 -0.730000 0.030374 0.001269	0.093980
0.253170 -0.730000 0.030945 0.001237	0.092229
0.243717 -0.730000 0.032371 0.001301	0.089575
0.240631 -0.730000 0.032833 0.001354	0.088996
0.229288 -0.730000 0.034505 0.001472	0.084543
0.228703 -0.730000 0.034591 0.001473	0.084131
0.228394 -0.730000 0.034636 0.001478	0.083972
0.218685 -0.730000 0.036044 0.001499	0.077211
0.214983 -0.730000 0.036573 0.001470	0.075926
0.207728 -0.730000 0.037604 0.001394	0.072425
0.203080 -0.730000 0.038253 0.001478	0.070206
0.195246 -0.730000 0.039340 0.001536	0.066545
0.191514 -0.730000 0.039849 0.001511	0.064027
0.182719 -0.730000 0.041039 0.001420	0.061859
0.177510 -0.730000 0.041733 0.001521	0.060588
0.173334 -0.730000 0.042285 0.001560	0.058635
0.169469 -0.730000 0.042786 0.001623	0.056988
0.164658 -0.730000 0.043411 0.001613	0.053699
0.158638 -0.730000 0.044175 0.001574	0.052094
0.155545 -0.730000 0.044569 0.001582	0.050366
0.153405 -0.730000 0.044837 0.001607	0.049107
0.144020 -0.730000 0.045999 0.001938	0.045656
0.143784 -0.730000 0.046028 0.001945	0.045522
0.143752 -0.730000 0.046032 0.001946	0.045511
0.133308 -0.730000 0.047288 0.001990	0.042880
0.133094 -0.730000 0.047313 0.001997	0.042795
0.125091 -0.730000 0.048251 0.002024	0.037530
0.121934 -0.730000 0.048613 0.001964	0.036978
0.113895 -0.730000 0.049523 0.002038	0.030564
0.110270 -0.730000 0.049927 0.002077	0.026368
0.100514 -0.730000 0.050985 0.001992	0.024434
0.099336 -0.730000 0.051112 0.001972	0.023701
0.088664 -0.730000 0.052225 0.001820	0.019603
0.088590 -0.730000 0.052233 0.001819	0.019561
0.088408 -0.730000 0.052251 0.001821	0.019545
0.079078 -0.730000 0.053186 0.001796	0.014746
0.073759 -0.730000 0.053698 0.001964	0.011365
0.069239 -0.730000 0.054128 0.002063	0.007777
0.061681 -0.730000 0.054830 0.002125	0.005342
0.060333 -0.730000 0.054951 0.002088	0.004885
0.052712 -0.730000 0.055626 0.001955	-0.001234
0.048727 -0.730000 0.055964 0.002015	-0.002303
0.044077 -0.730000 0.056356 0.002002	-0.003790
0.036271 -0.730000 0.056981 0.002279	-0.007770
0.034187 -0.730000 0.057147 0.002320	-0.009015
0.032371 -0.730000 0.057284 0.002317	-0.009544
0.025178 -0.730000 0.057827 0.002071	-0.010763
0.019021 -0.730000 0.058266 0.002370	-0.011683
0.016871 -0.730000 0.058416 0.002338	-0.012433
0.009735 -0.730000 0.058893 0.002254	-0.018877
0.008336 -0.730000 0.058982 0.002302	-0.018965
0.002084 -0.730000 0.059371 0.002355	-0.021029
-0.003494 -0.730000 0.059697 0.002335	-0.020634
-0.006228 -0.730000 0.059852 0.002167	-0.021854
-0.012242 -0.730000 0.060175 0.002120	-0.025769
-0.015992 -0.730000 0.060365 0.002094	-0.026441
-0.020063 -0.730000 0.060560 0.002198	-0.026871
-0.025699 -0.730000 0.060812 0.002678	-0.028743
-0.028329 -0.730000 0.060923 0.002783	-0.031405
-0.034008 -0.730000 0.061149 0.002905	-0.038563
-0.037349 -0.730000 0.061268 0.002807	-0.039914
-0.041287 -0.730000 0.061404 0.002697	-0.042187
-0.046132 -0.730000 0.061550 0.003017	-0.044464
-0.047121 -0.730000 0.061580 0.003018	-0.045134
-0.047864 -0.730000 0.061599 0.003043	-0.045384
-0.052744 -0.730000 0.061724 0.002854	-0.049829
-0.054734 -0.730000 0.061768 0.002788	-0.053760
-0.059454 -0.730000 0.061865 0.002790	-0.059285
-0.060819 -0.730000 0.061889 0.002812	-0.059976
-0.066042 -0.730000 0.061968 0.002827	-0.061321
-0.067978 -0.730000 0.061991 0.002788	-0.061861
-0.075184 -0.730000 0.062050 0.002906	-0.066879
-0.076095 -0.730000 0.062055 0.002880	-0.067719
-0.085028 -0.730000 0.062052 0.002455	-0.064694
-0.085241 -0.730000 0.062051 0.002455	-0.064681
-0.085593 -0.730000 0.062048 0.002460	-0.064590
-0.092452 -0.730000 0.061996 0.002500	-0.065875
-0.098046 -0.730000 0.061910 0.002958	-0.069385
-0.099929 -0.730000 0.061881 0.003016	-0.070229
-0.101945 -0.730000 0.061835 0.003112	-0.071567
-0.106168 -0.730000 0.061739 0.003053	-0.075643
-0.107836 -0.730000 0.061690 0.002936	-0.076230
-0.112502 -0.730000 0.061547 0.002788	-0.079874
-0.114853 -0.730000 0.061464 0.003075	-0.080713
-0.118907 -0.730000 0.061306 0.002738	-0.084814
-0.121379 -0.730000 0.061199 0.002750	-0.086432
-0.125713 -0.730000 0.060994 0.002783	-0.082860
-0.127555 -0.730000 0.060895 0.002664	-0.085287
-0.132675 -0.730000 0.060606 0.002952	-0.088335
-0.135786 -0.730000 0.060406 0.003046	-0.090980
-0.138402 -0.730000 0.060237 0.002922	-0.091462
-0.141500 -0.730000 0.060009 0.003225	-0.096020
-0.144475 -0.730000 0.059792 0.003331	-0.098632
-0.146778 -0.730000 0.059601 0.003232	-0.101010
-0.149851 -0.730000 0.059344 0.002903	-0.106627
-0.154788 -0.730000 0.058888 0.003368	-0.111351
-0.155010 -0.730000 0.058868 0.003376	-0.111661
-0.155064 -0.730000 0.058862 0.003379	-0.111620
-0.159906 -0.730000 0.058367 0.003421	-0.111187
-0.160765 -0.730000 0.058275 0.003678	-0.112339
-0.161817 -0.730000 0.058156 0.003697	-0.114487
-0.165550 -0.730000 0.057730 0.003948	-0.118599
-0.167298 -0.730000 0.057518 0.003775	-0.122090
-0.170467 -0.730000 0.057114 0.003408	-0.121268
-0.171819 -0.730000 0.056940 0.003612	-0.121349
-0.173103 -0.730000 0.056763 0.003425	-0.122809
-0.176242 -0.730000 0.056324 0.003589	-0.122460
-0.178251 -0.730000 0.056026 0.003721	-0.124203
-0.180115 -0.730000 0.055742 0.003655	-0.126508
-0.182772 -0.730000 0.055320 0.003607	-0.132917
-0.183532 -0.730000 0.055196 0.003646	-0.134690
-0.186267 -0.730000 0.054730 0.003335	-0.132309
-0.187651 -0.730000 0.054485 0.003373	-0.128379
-0.190366 -0.730000 0.053989 0.003196	-0.129564
-0.191901 -0.730000 0.053696 0.003223	-0.132454
-0.194677 -0.730000 0.053145 0.003500	-0.136691
-0.196376 -0.730000 0.052791 0.003412	-0.142662
-0.198325 -0.730000 0.052373 0.003407	-0.148882
-0.200848 -0.730000 0.051803 0.002789	-0.155803
-0.201635 -0.730000 0.051627 0.002818	-0.147515
-0.203117 -0.730000 0.051270 0.002696	-0.143461
-0.204322 -0.730000 0.050979 0.002783	-0.129074
-0.205312 -0.730000 0.050728 0.002957	-0.133247
-0.206839 -0.730000 0.050340 0.003235	-0.139108
-0.208319 -0.730000 0.049943 0.003316	-0.135769
-0.209439 -0.730000 0.049643 0.003355	-0.133613
-0.210244 -0.730000 0.049415 0.003390	-0.134455
-0.211884 -0.730000 0.048951 0.003395	-0.138050
-0.214288 -0.730000 0.048227 0.003549	-0.152233
-0.214553 -0.730000 0.048148 0.003566	-0.153546
-0.214677 -0.730000 0.048108 0.003551	-0.153841
-0.217031 -0.730000 0.047356 0.003474	-0.149203
-0.217337 -0.730000 0.047252 0.003522	-0.147666
-0.219260 -0.730000 0.046600 0.003804	-0.140570
-0.220508 -0.730000 0.046154 0.003556	-0.145817
-0.221364 -0.730000 0.045846 0.003374	-0.144833
-0.222679 -0.730000 0.045344 0.003389	-0.143528
-0.223557 -0.730000 0.045010 0.003184	-0.139104
-0.224332 -0.730000 0.044696 0.003157	-0.123864
-0.225548 -0.730000 0.044204 0.003063	-0.120178
-0.226819 -0.730000 0.043658 0.003176	-0.123211
-0.227490 -0.730000 0.043369 0.003229	-0.127060
-0.228506 -0.730000 0.042902 0.003618	-0.108315
-0.229477 -0.730000 0.042458 0.003848	-0.099964
-0.229787 -0.730000 0.042309 0.003907	-0.089768
-0.231493 -0.730000 0.041463 0.003187	-0.079372
-0.231808 -0.730000 0.041303 0.003163	-0.075828
-0.232165 -0.730000 0.041113 0.003140	-0.071141
-0.233879 -0.730000 0.040181 0.003486	-0.087708
-0.234194 -0.730000 0.040005 0.003378	-0.089188
-0.234998 -0.730000 0.039528 0.003296	-0.086341
-0.235650 -0.730000 0.039144 0.003071	-0.077770
-0.236038 -0.730000 0.038902 0.003070	-0.075976
-0.237029 -0.730000 0.038274 0.002994	-0.042502
-0.237490 -0.730000 0.037965 0.002978	-0.027175
-0.238028 -0.730000 0.037602 0.002871	-0.019023
-0.238663 -0.730000 0.037148 0.002887	-0.011791
-0.239086 -0.730000 0.036847 0.002865	-0.003678
-0.239535 -0.730000 0.036505 0.002821	-0.000029
-0.240279 -0.730000 0.035934 0.003177	0.008724
-0.241155 -0.730000 0.035211 0.002939	0.057365
-0.241274 -0.730000 0.035112 0.002917	0.064719
-0.241494 -0.730000 0.034916 0.002904	0.073309
-0.242236 -0.730000 0.034256 0.002693	0.110815
-0.242302 -0.730000 0.034195 0.002689	0.108508
-0.242729 -0.730000 0.033778 0.002577	0.104635
-0.243230 -0.730000 0.033294 0.002472	0.121043
-0.243528 -0.730000 0.032984 0.002346	0.141591
-0.244124 -0.730000 0.032345 0.002118	0.249436
-0.244650 -0.730000 0.031732 0.002144	0.255984
-0.244910 -0.730000 0.031424 0.002148	0.260053
-0.245421 -0.730000 0.030755 0.002024	0.274983
-0.245697 -0.730000 0.030395 0.001975	0.288147
-0.245850 -0.730000 0.030175 0.001867	0.312512
-0.246456 -0.730000 0.029266 0.001310	0.403706
-0.246645 -0.730000 0.028953 0.001181	0.431084
-0.247096 -0.730000 0.028165 0.000970	0.528941
-0.247710 -0.730000 0.026910 0.000618	0.612353
-0.247737 -0.730000 0.026857 0.000601	0.614077
-0.247764 -0.730000 0.026788 0.000589	0.620534
-0.248298 -0.730000 0.025396 0.000226	0.676890
-0.248734 -0.730000 0.023801 0.000078	0.674116
-0.248761 -0.730000 0.023700 0.000068	0.680928
-0.248774 -0.730000 0.023609 0.000065	0.683595
-0.249049 -0.730000 0.021789 0.000018	0.809568
-0.249082 -0.730000 0.020370 -0.000003	0.911858
-0.249079 -0.730000 0.019580 -0.000009	0.963954
-0.248870 -0.730000 0.017881 -0.000017	1.034074
-0.248811 -0.730000 0.017364 -0.000020	1.057531
-0.248768 -0.730000 0.017190 -0.000019	1.055523
-0.248206 -0.730000 0.015084 -0.000004	1.009968
-0.247645 -0.730000 0.013667 0.000024	0.970015
-0.247466 -0.730000 0.013214 0.000032	0.961084
-0.247271 -0.730000 0.012812 0.000053	0.950673
-0.246745 -0.730000 0.011765 0.000135	0.945388
-0.245831 -0.730000 0.010225 0.000349	0.896372
-0.245785 -0.730000 0.010149 0.000360	0.895881
-0.245743 -0.730000 0.010088 0.000374	0.894212
-0.244751 -0.730000 0.008656 0.000628	0.883947
-0.244566 -0.730000 0.008417 0.000653	0.872333
-0.243820 -0.730000 0.007458 0.000927	0.834500
-0.242857 -0.730000 0.006327 0.001007	0.811950
-0.242792 -0.730000 0.006252 0.001030	0.809927
-0.242032 -0.730000 0.005432 0.001266	0.766358
-0.241667 -0.730000 0.005038 0.001375	0.746233
-0.241616 -0.730000 0.004986 0.001383	0.744176
-0.240613 -0.730000 0.003982 0.001508	0.733275
-0.239618 -0.730000 0.003047 0.001528	0.719065
-0.239414 -0.730000 0.002859 0.001529	0.708352
-0.238073 -0.730000 0.001684 0.001614	0.640963
-0.237957 -0.730000 0.001584 0.001615	0.639614
-0.237814 -0.730000 0.001467 0.001635	0.638252
-0.236434 -0.730000 0.000338 0.001712	0.614900
-0.234947 -0.730000 -0.000807 0.001738	0.566191
-0.234849 -0.730000 -0.000882 0.001738	0.563307
-0.234834 -0.730000 -0.000893 0.001738	0.562945
-0.234631 -0.730000 -0.001040 0.001752	0.559293
-0.233046 -0.730000 -0.002185 0.001842	0.531629
-0.232734 -0.730000 -0.002408 0.001842	0.525091
-0.232278 -0.730000 -0.002715 0.001831	0.519124
-0.230740 -0.730000 -0.003755 0.001734	0.500490
-0.228877 -0.730000 -0.004945 0.001530	0.480478
-0.228657 -0.730000 -0.005087 0.001504	0.477152
-0.228487 -0.730000 -0.005190 0.001501	0.475131
-0.226346 -0.730000 -0.006484 0.001523	0.445049
-0.225168 -0.730000 -0.007162 0.001594	0.427292
-0.223758 -0.730000 -0.007964 0.001624	0.413852
-0.222033 -0.730000 -0.008902 0.001592	0.407097
-0.220787 -0.730000 -0.009570 0.001610	0.403359
-0.219380 -0.730000 -0.010292 0.001632	0.388367
-0.218300 -0.730000 -0.010848 0.001663	0.379855
-0.216682 -0.730000 -0.011647 0.001855	0.360789
-0.216174 -0.730000 -0.011897 0.001896	0.356321
-0.215496 -0.730000 -0.012220 0.001956	0.352829
-0.213878 -0.730000 -0.012991 0.002069	0.348439
-0.213664 -0.730000 -0.013092 0.002074	0.347043
-0.213451 -0.730000 -0.013190 0.002074	0.346530
-0.210571 -0.730000 -0.014503 0.002147	0.333382
-0.210497 -0.730000 -0.014536 0.002159	0.333046
-0.207387 -0.730000 -0.015891 0.002639	0.322538
-0.207219 -0.730000 -0.015962 0.002643	0.321532
-0.204093 -0.730000 -0.017268 0.002592	0.310049
-0.204032 -0.730000 -0.017294 0.002591	0.309857
-0.203972 -0.730000 -0.017318 0.002596	0.309613
-0.201391 -0.730000 -0.018356 0.002795	0.299733
-0.200958 -0.730000 -0.018526 0.002808	0.297157
-0.198320 -0.730000 -0.019555 0.002472	0.282920
-0.197703 -0.730000 -0.019789 0.002427	0.281962
-0.195606 -0.730000 -0.020578 0.002539	0.279553
-0.194229 -0.730000 -0.021082 0.002533	0.275087
-0.192511 -0.730000 -0.021710 0.002563	0.274294
-0.190451 -0.730000 -0.022439 0.002725	0.269822
-0.189584 -0.730000 -0.022747 0.002777	0.269253
-0.189151 -0.730000 -0.022896 0.002808	0.267370
-0.186129 -0.730000 -0.023936 0.002928	0.268165
-0.185270 -0.730000 -0.024224 0.002985	0.266694
-0.182372 -0.730000 -0.025183 0.003041	0.259761
-0.181365 -0.730000 -0.025512 0.002977	0.256811
-0.177165 -0.730000 -0.026847 0.002972	0.244183
-0.177061 -0.730000 -0.026880 0.002974	0.243943
-0.177015 -0.730000 -0.026894 0.002976	0.243882
-0.176922 -0.730000 -0.026923 0.002962	0.243673
-0.172631 -0.730000 -0.028236 0.002671	0.238665
-0.168252 -0.730000 -0.029529 0.002804	0.225071
-0.168191 -0.730000 -0.029547 0.002805	0.225020
-0.168170 -0.730000 -0.029553 0.002808	0.224966
-0.163195 -0.730000 -0.030965 0.003024	0.222044
-0.163005 -0.730000 -0.031018 0.002992	0.222292
-0.162800 -0.730000 -0.031075 0.002984	0.221540
-0.158347 -0.730000 -0.032296 0.003015	0.213694
-0.158139 -0.730000 -0.032353 0.003016	0.213394
-0.157920 -0.730000 -0.032411 0.003014	0.212887
-0.154603 -0.730000 -0.033292 0.003067	0.213329
-0.152916 -0.730000 -0.033725 0.002967	0.209214
-0.150748 -0.730000 -0.034285 0.002922	0.210628
-0.148318 -0.730000 -0.034897 0.002784	0.200459
-0.146613 -0.730000 -0.035326 0.002793	0.197087
-0.143996 -0.730000 -0.035965 0.002797	0.194733
-0.141987 -0.730000 -0.036456 0.002881	0.193534
-0.140487 -0.730000 -0.036811 0.002875	0.192965
-0.137619 -0.730000 -0.037490 0.003015	0.192554
-0.134153 -0.730000 -0.038289 0.003021	0.190658
-0.133261 -0.730000 -0.038495 0.003053	0.190480
-0.132433 -0.730000 -0.038682 0.003005	0.190310
-0.128443 -0.730000 -0.039574 0.003136	0.186222
-0.127939 -0.730000 -0.039684 0.003199	0.185250
-0.124036 -0.730000 -0.040534 0.003643	0.179797
-0.122171 -0.730000 -0.040927 0.003473	0.178970
-0.120185 -0.730000 -0.041346 0.003260	0.179852
-0.118677 -0.730000 -0.041661 0.003225	0.177852
-0.116530 -0.730000 -0.042108 0.003136	0.176943
-0.114387 -0.730000 -0.042545 0.003098	0.174105
-0.111957 -0.730000 -0.043033 0.003243	0.171519
-0.107917 -0.730000 -0.043826 0.003091	0.165448
-0.107280 -0.730000 -0.043951 0.003023	0.164772
-0.106075 -0.730000 -0.044183 0.003035	0.164165
-0.102388 -0.730000 -0.044891 0.003034	0.164991
-0.097828 -0.730000 -0.045739 0.002776	0.158621
-0.097189 -0.730000 -0.045857 0.002768	0.157781
-0.096540 -0.730000 -0.045975 0.002799	0.157368
-0.092062 -0.730000 -0.046785 0.003055	0.158220
-0.088638 -0.730000 -0.047388 0.003171	0.157392
-0.085682 -0.730000 -0.047904 0.003133	0.156074
-0.083127 -0.730000 -0.048340 0.003063	0.156368
-0.079896 -0.730000 -0.048882 0.003081	0.154699
-0.076806 -0.730000 -0.049395 0.003183	0.152491
-0.073713 -0.730000 -0.049895 0.003227	0.150630
-0.071936 -0.730000 -0.050182 0.003167	0.149692
-0.068187 -0.730000 -0.050773 0.003195	0.147477
-0.066403 -0.730000 -0.051052 0.003137	0.146177
-0.062938 -0.730000 -0.051581 0.003131	0.143593
-0.060523 -0.730000 -0.051952 0.003007	0.142833
-0.059438 -0.730000 -0.052113 0.002978	0.140811
-0.053647 -0.730000 -0.052966 0.002807	0.140418
-0.052396 -0.730000 -0.053145 0.002821	0.141434
-0.046597 -0.730000 -0.053969 0.002824	0.142836
-0.045242 -0.730000 -0.054157 0.002825	0.143124
-0.039197 -0.730000 -0.054985 0.003019	0.143990
-0.038137 -0.730000 -0.055128 0.002986	0.143606
-0.034790 -0.730000 -0.055570 0.002802	0.139628
-0.032689 -0.730000 -0.055845 0.002911	0.139327
-0.026589 -0.730000 -0.056626 0.003195	0.138865
-0.023735 -0.730000 -0.056982 0.003046	0.138813
-0.017618 -0.730000 -0.057730 0.002683	0.135821
-0.012390 -0.730000 -0.058349 0.002660	0.135163
-0.010195 -0.730000 -0.058607 0.002680	0.135158
-0.006814 -0.730000 -0.058992 0.002638	0.133132
-0.002709 -0.730000 -0.059460 0.002657	0.131136
0.001038 -0.730000 -0.059870 0.002757	0.130028
0.005505 -0.730000 -0.060356 0.002769	0.130300
0.009078 -0.730000 -0.060730 0.002677	0.128469
0.014951 -0.730000 -0.061339 0.002427	0.126895
0.020264 -0.730000 -0.061872 0.002422	0.126929
0.024628 -0.730000 -0.062301 0.002754	0.127286
0.029667 -0.730000 -0.062782 0.003157	0.127493
0.033347 -0.730000 -0.063126 0.003156	0.126458
0.038584 -0.730000 -0.063603 0.003126	0.125805
0.041827 -0.730000 -0.063895 0.002984	0.125910
0.046291 -0.730000 -0.064279 0.002885	0.124577
0.050951 -0.730000 -0.064683 0.002845	0.124483
0.057492 -0.730000 -0.065223 0.002853	0.123648
0.060402 -0.730000 -0.065460 0.002868	0.123537
0.068336 -0.730000 -0.066083 0.002999	0.123122
0.069577 -0.730000 -0.066178 0.003002	0.122895
0.077001 -0.730000 -0.066735 0.003003	0.122646
0.082541 -0.730000 -0.067133 0.002912	0.122427
0.086390 -0.730000 -0.067408 0.002873	0.122509
0.093165 -0.730000 -0.067869 0.002730	0.120320
0.096485 -0.730000 -0.068092 0.002711	0.119388
0.105537 -0.730000 -0.068672 0.002964	0.118694
0.110197 -0.730000 -0.068961 0.003028	0.118338
0.114984 -0.730000 -0.069251 0.003039	0.117666
0.121282 -0.730000 -0.069614 0.002859	0.117035
0.124301 -0.730000 -0.069789 0.002751	0.117724
0.131844 -0.730000 -0.070200 0.002677	0.117946
0.133770 -0.730000 -0.070305 0.002648	0.118283
0.134081 -0.730000 -0.070321 0.002665	0.118241
0.136409 -0.730000 -0.070441 0.002695	0.117909
0.144959 -0.730000 -0.070880 0.002891	0.116978
0.149000 -0.730000 -0.071075 0.002853	0.116323
0.155787 -0.730000 -0.071398 0.002747	0.116812
0.161333 -0.730000 -0.071648 0.002659	0.116145
0.167406 -0.730000 -0.071916 0.002575	0.116303
0.177649 -0.730000 -0.072342 0.002706	0.115861
0.178244 -0.730000 -0.072366 0.002710	0.115884
0.178411 -0.730000 -0.072373 0.002711	0.115914
0.189830 -0.730000 -0.072809 0.002705	0.117423
0.194253 -0.730000 -0.072967 0.002708	0.116986
0.200068 -0.730000 -0.073174 0.002740	0.117384
0.204014 -0.730000 -0.073305 0.002780	0.116531
0.211702 -0.730000 -0.073553 0.002735	0.118354
0.216088 -0.730000 -0.073689 0.002601	0.120079
0.226520 -0.730000 -0.073989 0.002572	0.121810
0.228066 -0.730000 -0.074032 0.002571	0.122215
0.240319 -0.730000 -0.074350 0.002519	0.123380
0.241486 -0.730000 -0.074378 0.002513	0.123748
0.251765 -0.730000 -0.074615 0.002600	0.128237
0.257512 -0.730000 -0.074739 0.002762	0.130441
0.267726 -0.730000 -0.074938 0.002789	0.132132
0.269793 -0.730000 -0.074979 0.002800	0.132732
0.273220 -0.730000 -0.075037 0.002768	0.133463
0.282572 -0.730000 -0.075196 0.002658	0.135630
0.295160 -0.730000 -0.075374 0.002642	0.136914
0.297447 -0.730000 -0.075406 0.002652	0.137572
0.300510 -0.730000 -0.075440 0.002662	0.137676
0.311975 -0.730000 -0.075570 0.002781	0.139483
0.316900 -0.730000 -0.075614 0.002701	0.139341
0.325353 -0.730000 -0.075688 0.002704	0.139254
0.336226 -0.730000 -0.075758 0.002701	0.141180
0.338303 -0.730000 -0.075771 0.002679	0.141687
0.350713 -0.730000 -0.075825 0.002610	0.143750
0.351404 -0.730000 -0.075827 0.002605	0.143914
0.353418 -0.730000 -0.075831 0.002591	0.144465
0.363352 -0.730000 -0.075851 0.002510	0.147946
0.368120 -0.730000 -0.075852 0.002478	0.149322
0.375034 -0.730000 -0.075853 0.002385	0.151963
0.379478 -0.730000 -0.075846 0.002420	0.152430
0.387943 -0.730000 -0.075830 0.002424	0.155396
0.399198 -0.730000 -0.075786 0.002438	0.157563
0.400535 -0.730000 -0.075781 0.002435	0.157793
0.401970 -0.730000 -0.075773 0.002448	0.157909
0.413106 -0.730000 -0.075710 0.002521	0.159730
0.425399 -0.730000 -0.075613 0.002520	0.162325
0.427658 -0.730000 -0.075596 0.002533	0.162935
0.428853 -0.730000 -0.075584 0.002521	0.163426
0.443378 -0.730000 -0.075436 0.002426	0.167349
0.444846 -0.730000 -0.075421 0.002416	0.167795
0.445101 -0.730000 -0.075418 0.002416	0.167805
0.445822 -0.730000 -0.075409 0.002410	0.167906
0.457327 -0.730000 -0.075267 0.002308	0.169811
0.462616 -0.730000 -0.075194 0.002414	0.171782
0.467656 -0.730000 -0.075125 0.002518	0.173409
0.478674 -0.730000 -0.074954 0.002369	0.178726
0.479197 -0.730000 -0.074946 0.002359	0.178937
0.480630 -0.730000 -0.074921 0.002354	0.179295
0.492160 -0.730000 -0.074723 0.002328	0.181154
0.497614 -0.730000 -0.074619 0.002310	0.183437
0.506462 -0.730000 -0.074449 0.002327	0.185270
0.519141 -0.730000 -0.074182 0.002346	0.187542
0.520235 -0.730000 -0.074159 0.002351	0.187663
0.520423 -0.730000 -0.074155 0.002350	0.187727
0.520863 -0.730000 -0.074145 0.002342	0.187960
0.532874 -0.730000 -0.073869 0.002225	0.191064
0.539500 -0.730000 -0.073707 0.002234	0.193452
0.544090 -0.730000 -0.073591 0.002282	0.194805
0.551626 -0.730000 -0.073398 0.002360	0.196250
0.564384 -0.730000 -0.073050 0.002366	0.201576
0.564462 -0.730000 -0.073047 0.002367	0.201598
0.564550 -0.730000 -0.073045 0.002366	0.201638
0.576802 -0.730000 -0.072687 0.002436	0.202531
0.581346 -0.730000 -0.072548 0.002416	0.204430
0.588250 -0.730000 -0.072335 0.002275	0.205338
0.596242 -0.730000 -0.072076 0.002207	0.207621
0.599464 -0.730000 -0.071970 0.002187	0.207704
0.608848 -0.730000 -0.071652 0.002165	0.211063
0.612408 -0.730000 -0.071529 0.002157	0.211489
0.617263 -0.730000 -0.071353 0.002137	0.214232
0.624795 -0.730000 -0.071081 0.002124	0.215575
0.628711 -0.730000 -0.070935 0.002125	0.219263
0.635832 -0.730000 -0.070663 0.002224	0.222261
0.640947 -0.730000 -0.070464 0.002277	0.222728
0.651026 -0.730000 -0.070058 0.002292	0.231885
0.652780 -0.730000 -0.069987 0.002280	0.232703
0.662634 -0.730000 -0.069573 0.002210	0.236289
1 2
2 3
3 4
4 5
5 6
6 7
7 8
8 9
9 10
10 11
11 12
12 13
13 14
14 15
15 16
16 17
17 18
18 19
19 20
20 21
21 22
22 23
23 24
24 25
25 26
26 27
27 28
28 29
29 30
30 31
31 32
32 33
33 34
34 35
35 36
36 37
37 38
38 39
39 40
40 41
41 42
42 43
43 44
44 45
45 46
46 47
47 48
48 49
49 50
50 51
51 52
52 53
53 54
54 55
55 56
56 57
57 58
58 59
59 60
60 61
61 62
62 63
63 64
64 65
65 66
66 67
67 68
68 69
69 70
70 71
71 72
72 73
73 74
74 75
75 76
76 77
77 78
78 79
79 80
80 81
81 82
82 83
83 84
84 85
85 86
86 87
87 88
88 89
89 90
90 91
91 92
92 93
93 94
94 95
95 96
96 97
97 98
98 99
99 100
100 101
101 102
102 103
103 104
104 105
105 106
106 107
107 108
108 109
109 110
110 111
111 112
112 113
113 114
114 115
115 116
116 117
117 118
118 119
119 120
120 121
121 122
122 123
123 124
124 125
125 126
126 127
127 128
128 129
129 130
130 131
131 132
132 133
133 134
134 135
135 136
136 137
137 138
138 139
139 140
140 141
141 142
142 143
143 144
144 145
145 146
146 147
147 148
148 149
149 150
150 151
151 152
152 153
153 154
154 155
155 156
156 157
157 158
158 159
159 160
160 161
161 162
162 163
163 164
164 165
165 166
166 167
167 168
168 169
169 170
170 171
171 172
172 173
173 174
174 175
175 176
176 177
177 178
178 179
179 180
180 181
181 182
182 183
183 184
184 185
185 186
186 187
187 188
188 189
189 190
190 191
191 192
192 193
193 194
194 195
195 196
196 197
197 198
198 199
199 200
200 201
201 202
202 203
203 204
204 205
205 206
206 207
207 208
208 209
209 210
210 211
211 212
212 213
213 214
214 215
215 216
216 217
217 218
218 219
219 220
220 221
221 222
222 223
223 224
224 225
225 226
226 227
227 228
228 229
229 230
230 231
231 232
232 233
233 234
234 235
235 236
236 237
237 238
238 239
239 240
240 241
241 242
242 243
243 244
244 245
245 246
246 247
247 248
248 249
249 250
250 251
251 252
252 253
253 254
254 255
255 256
256 257
257 258
258 259
259 260
260 261
261 262
262 263
263 264
264 265
265 266
266 267
267 268
268 269
269 270
270 271
271 272
272 273
273 274
274 275
275 276
276 277
277 278
278 279
279 280
280 281
281 282
282 283
283 284
284 285
285 286
286 287
287 288
288 289
289 290
290 291
291 292
292 293
293 294
294 295
295 296
296 297
297 298
298 299
299 300
300 301
301 302
302 303
303 304
304 305
305 306
306 307
307 308
308 309
309 310
310 311
311 312
312 313
313 314
314 315
315 316
316 317
317 318
318 319
319 320
320 321
321 322
322 323
323 324
324 325
325 326
326 327
327 328
328 329
329 330
330 331
331 332
332 333
333 334
334 335
335 336
336 337
337 338
338 339
339 340
340 341
341 342
342 343
343 344
344 345
345 346
346 347
347 348
348 349
349 350
350 351
351 352
352 353
353 354
354 355
355 356
356 357
357 358
358 359
359 360
360 361
361 362
362 363
363 364
364 365
365 366
366 367
367 368
368 369
369 370
370 371
371 372
372 373
373 374
374 375
375 376
376 377
377 378
378 379
379 380
380 381
381 382
382 383
383 384
384 385
385 386
386 387
387 388
388 389
389 390
390 391
391 392
392 393
393 394
394 395
395 396
396 397
397 398
398 399
399 400
400 401
401 402
402 403
403 404
404 405
405 406
406 407
407 408
408 409
409 410
410 411
411 412
412 413
413 414
414 415
415 416
416 417
417 418
418 419