TITLE     = "Surface mesh and solution"
VARIABLES = "x"
"y"
"z"
"cfx"
"Cp"
DATASETAUXDATA alpha_deg="  0.0000000E+00"
DATASETAUXDATA beta_deg="  0.0000000E+00"
DATASETAUXDATA bref="  0.7500000"
DATASETAUXDATA cref="   1.000000"
DATASETAUXDATA itranflg="           0"
DATASETAUXDATA ivisc="           2"
DATASETAUXDATA mach="  0.2000000"
DATASETAUXDATA reue_mil="   4.600000"
DATASETAUXDATA sref="  0.7500000"
DATASETAUXDATA tinf_r="   521.0000"
DATASETAUXDATA xmc="  0.0000000E+00"
DATASETAUXDATA ymc="  0.0000000E+00"
DATASETAUXDATA zmc="  0.0000000E+00"
ZONE T="USM3D-ME, HeldenMesh_M, Slice: Y=-0.001"
 STRANDID=0, SOLUTIONTIME=0
 Nodes=393, Elements=383, ZONETYPE=FELineSeg
 DATAPACKING=POINT
 DT=(DOUBLE DOUBLE DOUBLE DOUBLE DOUBLE )
 7.471460240E-01 -1.000000000E-03 -6.536680706E-02 7.008133299E-04 3.909616257E-01
 7.461198760E-01 -1.000000000E-03 -6.512606480E-02 5.999401413E-04 3.890804337E-01
 7.451688085E-01 -1.000000000E-03 -6.490224042E-02 3.042897972E-04 4.319004048E-01
 7.440252836E-01 -1.000000000E-03 -6.463282885E-02 1.048433895E-04 4.303528186E-01
 7.427847008E-01 -1.000000000E-03 -6.434226005E-02 -1.344073632E-05 4.294340088E-01
 7.413230922E-01 -1.000000000E-03 -6.399831522E-02 -5.432054288E-05 4.289666155E-01
 7.402550644E-01 -1.000000000E-03 -6.374872199E-02 -5.511509632E-05 4.283309372E-01
 7.387437814E-01 -1.000000000E-03 -6.339687626E-02 -3.380556594E-05 4.272354627E-01
 6.966434763E-01 -1.000000000E-03 -5.371101170E-02 1.750979630E-04 3.831656554E-01
 6.943261221E-01 -1.000000000E-03 -5.318688419E-02 1.863984184E-04 3.808156628E-01
 6.988145487E-01 -1.000000000E-03 -5.420294306E-02 1.643247036E-04 3.854302112E-01
 7.011601299E-01 -1.000000000E-03 -5.473553380E-02 1.548153021E-04 3.879058614E-01
 6.923159976E-01 -1.000000000E-03 -5.273286899E-02 1.973869640E-04 3.788461130E-01
 6.898424693E-01 -1.000000000E-03 -5.217540727E-02 2.086786680E-04 3.764646679E-01
 7.035178666E-01 -1.000000000E-03 -5.527156000E-02 1.476303622E-04 3.903801513E-01
 7.059158312E-01 -1.000000000E-03 -5.581791436E-02 1.357696449E-04 3.927476671E-01
 7.361113887E-01 -1.000000000E-03 -6.278344873E-02 -7.477442946E-06 4.251893114E-01
 7.347427442E-01 -1.000000000E-03 -6.246458007E-02 7.453566014E-06 4.240723153E-01
 7.336081573E-01 -1.000000000E-03 -6.219823982E-02 2.977678467E-06 4.228933770E-01
 7.082639585E-01 -1.000000000E-03 -5.635357894E-02 1.263691326E-04 3.951857996E-01
 7.106393560E-01 -1.000000000E-03 -5.689676393E-02 1.124919725E-04 3.978323493E-01
 7.130444446E-01 -1.000000000E-03 -5.744729332E-02 1.025304342E-04 4.005865545E-01
 7.153721878E-01 -1.000000000E-03 -5.798135112E-02 9.124794514E-05 4.031708526E-01
 7.177794103E-01 -1.000000000E-03 -5.853428504E-02 8.220791437E-05 4.057778429E-01
 7.198190735E-01 -1.000000000E-03 -5.900388871E-02 7.160416994E-05 4.080353499E-01
 7.223853100E-01 -1.000000000E-03 -5.959551013E-02 6.897319561E-05 4.107094337E-01
 7.254742435E-01 -1.000000000E-03 -6.031154120E-02 5.752215049E-05 4.140798923E-01
 7.240835371E-01 -1.000000000E-03 -5.999193278E-02 8.091257734E-05 4.122922440E-01
 7.309196090E-01 -1.000000000E-03 -6.157379735E-02 1.571540178E-05 4.201291194E-01
 7.297127740E-01 -1.000000000E-03 -6.129504438E-02 3.273689579E-05 4.188572370E-01
 7.285209300E-01 -1.000000000E-03 -6.101659625E-02 3.241584611E-05 4.176251061E-01
 6.875160274E-01 -1.000000000E-03 -5.165171282E-02 2.182118027E-04 3.741757762E-01
 -2.490574316E-01 -1.000000000E-03 2.105708741E-02 2.263849860E-04 6.085004851E-01
 -2.490799480E-01 -1.000000000E-03 1.950416680E-02 -2.785523058E-04 7.270680101E-01
 -2.489495220E-01 -1.000000000E-03 1.831190568E-02 -4.720949778E-04 7.624707939E-01
 -2.490484625E-01 -1.000000000E-03 2.179136409E-02 4.774846358E-04 5.755782357E-01
 -2.489298120E-01 -1.000000000E-03 2.251598192E-02 8.471761138E-04 5.003687120E-01
 -2.486806816E-01 -1.000000000E-03 2.405330382E-02 1.572497884E-03 3.907044285E-01
 -2.483414070E-01 -1.000000000E-03 2.521313274E-02 2.045898248E-03 3.278607596E-01
 -2.481372219E-01 -1.000000000E-03 2.585106876E-02 2.379326878E-03 2.836268468E-01
 -2.476424509E-01 -1.000000000E-03 2.704792495E-02 2.922432552E-03 1.608377351E-01
 -2.472743512E-01 -1.000000000E-03 2.781069686E-02 3.299364970E-03 1.019601044E-01
 -2.465892306E-01 -1.000000000E-03 2.903962888E-02 3.791916285E-03 9.504404461E-03
 -2.488577891E-01 -1.000000000E-03 1.763446518E-02 -5.801582989E-04 7.952382232E-01
 -2.485831623E-01 -1.000000000E-03 1.638554166E-02 -6.559471815E-04 8.703124145E-01
 -2.483412249E-01 -1.000000000E-03 1.553107295E-02 -6.719179470E-04 8.991115776E-01
 -2.478838192E-01 -1.000000000E-03 1.421704080E-02 -5.902303144E-04 9.397455700E-01
 -2.460488003E-01 -1.000000000E-03 2.987430519E-02 4.144585688E-03 -4.458251013E-02
 -2.474679894E-01 -1.000000000E-03 1.324213085E-02 -4.798981755E-04 9.576831597E-01
 -2.468878344E-01 -1.000000000E-03 1.204149781E-02 -3.049447402E-04 9.737576570E-01
 -2.463195856E-01 -1.000000000E-03 1.103580504E-02 -1.160033475E-04 9.786915497E-01
 -2.456383356E-01 -1.000000000E-03 9.931916883E-03 8.711268598E-05 9.783533093E-01
 -2.449302404E-01 -1.000000000E-03 8.917287316E-03 3.104915235E-04 9.723030301E-01
 -2.441810575E-01 -1.000000000E-03 7.915178364E-03 4.950707206E-04 9.629617013E-01
 -2.433190238E-01 -1.000000000E-03 6.871250693E-03 7.111705384E-04 9.485659192E-01
 -2.424865489E-01 -1.000000000E-03 5.916684124E-03 8.624790545E-04 9.342127286E-01
 -2.415248965E-01 -1.000000000E-03 4.902674142E-03 1.040659536E-03 9.153601414E-01
 -2.374018158E-01 -1.000000000E-03 1.129045232E-03 1.499912461E-03 8.387717744E-01
 -2.363663302E-01 -1.000000000E-03 2.867504856E-04 1.571243308E-03 8.229531575E-01
 -2.395547850E-01 -1.000000000E-03 2.996980099E-03 1.302615920E-03 8.780424985E-01
 -2.385747014E-01 -1.000000000E-03 2.116628845E-03 1.393322041E-03 8.601662124E-01
 -2.350896301E-01 -1.000000000E-03 -6.936165377E-04 1.662869455E-03 8.012290666E-01
 -2.339564654E-01 -1.000000000E-03 -1.536602849E-03 1.728094791E-03 7.831272224E-01
 -2.325588620E-01 -1.000000000E-03 -2.521821249E-03 1.801455402E-03 7.616473049E-01
 -2.313555107E-01 -1.000000000E-03 -3.345341733E-03 1.853356860E-03 7.443252580E-01
 -2.298527542E-01 -1.000000000E-03 -4.324288664E-03 1.921448444E-03 7.236115668E-01
 -2.285304021E-01 -1.000000000E-03 -5.162120759E-03 1.973583347E-03 7.068648367E-01
 -2.269110434E-01 -1.000000000E-03 -6.143082120E-03 2.038002029E-03 6.867213310E-01
 -2.255244813E-01 -1.000000000E-03 -6.961081978E-03 2.086229333E-03 6.703437707E-01
 -2.238421076E-01 -1.000000000E-03 -7.912743336E-03 2.143601811E-03 6.520425741E-01
 -2.223617046E-01 -1.000000000E-03 -8.729148731E-03 2.188578544E-03 6.372989286E-01
 -2.206422644E-01 -1.000000000E-03 -9.642534230E-03 2.239018796E-03 6.207113579E-01
 -2.191166489E-01 -1.000000000E-03 -1.043350226E-02 2.286085548E-03 6.074152488E-01
 -2.173043942E-01 -1.000000000E-03 -1.134066547E-02 2.332741647E-03 5.915583175E-01
 -2.157035452E-01 -1.000000000E-03 -1.212445552E-02 2.378487708E-03 5.790785332E-01
 -2.134328965E-01 -1.000000000E-03 -1.319306747E-02 2.420333091E-03 5.620506474E-01
 -2.120854367E-01 -1.000000000E-03 -1.382009658E-02 2.472318790E-03 5.528171521E-01
 -2.106335007E-01 -1.000000000E-03 -1.446627537E-02 2.483571649E-03 5.437777721E-01
 -2.081667900E-01 -1.000000000E-03 -1.555595709E-02 2.531483938E-03 5.281028043E-01
 -2.062346094E-01 -1.000000000E-03 -1.637485167E-02 2.567825366E-03 5.163207582E-01
 -2.035863629E-01 -1.000000000E-03 -1.747403159E-02 2.608161344E-03 5.009101657E-01
 -2.015168895E-01 -1.000000000E-03 -1.830544450E-02 2.636982832E-03 4.897570371E-01
 -1.984838161E-01 -1.000000000E-03 -1.948734214E-02 2.699409574E-03 4.747856601E-01
 -1.965223018E-01 -1.000000000E-03 -2.023528922E-02 2.750643386E-03 4.656448016E-01
 -2.415248965E-01 -1.000000000E-03 4.902674142E-03 1.040659536E-03 9.153601414E-01
 -2.406405173E-01 -1.000000000E-03 4.011805683E-03 1.159536842E-03 8.991704079E-01
 1.152109571E-01 -1.000000000E-03 4.937534237E-02 1.972130230E-03 -8.816317616E-02
 1.076705060E-01 -1.000000000E-03 5.021164700E-02 2.009707843E-03 -9.517633200E-02
 1.212117143E-01 -1.000000000E-03 4.869603980E-02 1.944129647E-03 -8.259169484E-02
 1.290079344E-01 -1.000000000E-03 4.779326229E-02 1.909104007E-03 -7.535060831E-02
 1.351760511E-01 -1.000000000E-03 4.706502309E-02 1.880141495E-03 -6.963727890E-02
 1.432439158E-01 -1.000000000E-03 4.609187433E-02 1.842745148E-03 -6.217325478E-02
 1.496360547E-01 -1.000000000E-03 4.530672657E-02 1.813313288E-03 -5.632150478E-02
 1.580799785E-01 -1.000000000E-03 4.424812591E-02 1.776899054E-03 -4.861646989E-02
 1.647654251E-01 -1.000000000E-03 4.339551500E-02 1.747392190E-03 -4.253782423E-02
 1.735001323E-01 -1.000000000E-03 4.225952113E-02 1.710599309E-03 -3.457285449E-02
 1.805351084E-01 -1.000000000E-03 4.132967993E-02 1.682686486E-03 -2.828262804E-02
 1.895172584E-01 -1.000000000E-03 4.012025003E-02 1.642884219E-03 -2.025674655E-02
 1.965585863E-01 -1.000000000E-03 3.915747608E-02 1.615513662E-03 -1.400578923E-02
 2.059161705E-01 -1.000000000E-03 3.785546981E-02 1.582901085E-03 -5.779926974E-03
 2.133452473E-01 -1.000000000E-03 3.680654461E-02 1.556454400E-03 7.147960784E-04
 2.230211186E-01 -1.000000000E-03 3.541718404E-02 1.520009877E-03 9.163063376E-03
 2.309138692E-01 -1.000000000E-03 3.426760717E-02 1.493197799E-03 1.599618860E-02
 2.409159234E-01 -1.000000000E-03 3.278775590E-02 1.454888505E-03 2.470867382E-02
 2.490606691E-01 -1.000000000E-03 3.156567213E-02 1.427461850E-03 3.172193430E-02
 2.591582597E-01 -1.000000000E-03 3.002893543E-02 1.396721803E-03 4.035868340E-02
 2.666034492E-01 -1.000000000E-03 2.888177007E-02 1.371370419E-03 4.677829236E-02
 2.766094336E-01 -1.000000000E-03 2.731906790E-02 1.347342001E-03 5.516856654E-02
 2.840380413E-01 -1.000000000E-03 2.614719987E-02 1.317457002E-03 6.147779616E-02
 2.945696938E-01 -1.000000000E-03 2.446169265E-02 1.275102457E-03 7.011570451E-02
 3.037413975E-01 -1.000000000E-03 2.297885677E-02 1.251939452E-03 7.743497043E-02
 3.153367931E-01 -1.000000000E-03 2.107696272E-02 1.208401410E-03 8.675546659E-02
 3.253013873E-01 -1.000000000E-03 1.942334380E-02 1.181561640E-03 9.465314608E-02
 3.376407117E-01 -1.000000000E-03 1.734828340E-02 1.142738188E-03 1.045044635E-01
 3.481167524E-01 -1.000000000E-03 1.556491771E-02 1.113978217E-03 1.126763441E-01
 3.611625655E-01 -1.000000000E-03 1.331629746E-02 1.077821388E-03 1.226498784E-01
 -1.920423468E-01 -1.000000000E-03 -2.187752154E-02 2.730112766E-03 4.491215020E-01
 -1.888798819E-01 -1.000000000E-03 -2.299000922E-02 2.732790009E-03 4.344518304E-01
 -1.965223018E-01 -1.000000000E-03 -2.023528922E-02 2.750643386E-03 4.656448016E-01
 -1.938295920E-01 -1.000000000E-03 -2.122421690E-02 2.729382434E-03 4.568142467E-01
 -1.864547239E-01 -1.000000000E-03 -2.382107212E-02 2.741704343E-03 4.252820710E-01
 -1.829178702E-01 -1.000000000E-03 -2.500493350E-02 2.791182184E-03 4.127224077E-01
 -1.796067488E-01 -1.000000000E-03 -2.606702277E-02 2.804295681E-03 4.018677174E-01
 -1.768441100E-01 -1.000000000E-03 -2.694743103E-02 2.860390619E-03 3.944991377E-01
 -1.744661176E-01 -1.000000000E-03 -2.767090684E-02 2.834692154E-03 3.862953552E-01
 -1.695444914E-01 -1.000000000E-03 -2.915061987E-02 2.828129682E-03 3.734426280E-01
 -1.661070325E-01 -1.000000000E-03 -3.014005266E-02 2.816683165E-03 3.668850193E-01
 -1.629062087E-01 -1.000000000E-03 -3.104564384E-02 2.814026236E-03 3.593565588E-01
 -1.591815148E-01 -1.000000000E-03 -3.206750459E-02 2.830311327E-03 3.494398149E-01
 -1.549668870E-01 -1.000000000E-03 -3.319255558E-02 2.815676132E-03 3.404341960E-01
 -1.509831495E-01 -1.000000000E-03 -3.422372043E-02 2.817381391E-03 3.329954123E-01
 -1.469001154E-01 -1.000000000E-03 -3.525410194E-02 2.805901698E-03 3.256397136E-01
 -1.430404306E-01 -1.000000000E-03 -3.619921066E-02 2.796582132E-03 3.193288673E-01
 -1.388527615E-01 -1.000000000E-03 -3.720013591E-02 2.782411635E-03 3.125432972E-01
 -1.348899316E-01 -1.000000000E-03 -3.812072761E-02 2.770988215E-03 3.059838076E-01
 -1.307187642E-01 -1.000000000E-03 -3.906697434E-02 2.753188984E-03 2.998896145E-01
 -1.265968732E-01 -1.000000000E-03 -3.997629308E-02 2.737502286E-03 2.944416919E-01
 -1.225758987E-01 -1.000000000E-03 -4.084272593E-02 2.720336526E-03 2.891893279E-01
 -1.181129664E-01 -1.000000000E-03 -4.177861019E-02 2.712121045E-03 2.834288129E-01
 -1.142102504E-01 -1.000000000E-03 -4.257796198E-02 2.695647285E-03 2.788507840E-01
 -1.096719037E-01 -1.000000000E-03 -4.348339485E-02 2.679567060E-03 2.746014757E-01
 -1.057646069E-01 -1.000000000E-03 -4.424462836E-02 2.663636605E-03 2.705328299E-01
 -1.010218584E-01 -1.000000000E-03 -4.514530279E-02 2.643953584E-03 2.654309589E-01
 -9.697849818E-02 -1.000000000E-03 -4.589521330E-02 2.627456786E-03 2.616067720E-01
 -9.207799016E-02 -1.000000000E-03 -4.678034755E-02 2.612294143E-03 2.571948778E-01
 -8.812180224E-02 -1.000000000E-03 -4.747875563E-02 2.595161488E-03 2.537979875E-01
 -8.308518527E-02 -1.000000000E-03 -4.834469904E-02 2.579958700E-03 2.498472457E-01
 -7.909453933E-02 -1.000000000E-03 -4.901491740E-02 2.564354080E-03 2.467495321E-01
 -7.398660555E-02 -1.000000000E-03 -4.985109377E-02 2.548452320E-03 2.430075487E-01
 -6.987496576E-02 -1.000000000E-03 -5.050787343E-02 2.533251760E-03 2.401319295E-01
 -6.469648495E-02 -1.000000000E-03 -5.131482790E-02 2.518744974E-03 2.367773254E-01
 -6.033908170E-02 -1.000000000E-03 -5.197657678E-02 2.505127848E-03 2.340304101E-01
 -5.512816082E-02 -1.000000000E-03 -5.274879915E-02 2.491094336E-03 2.308449906E-01
 -5.062766608E-02 -1.000000000E-03 -5.339858438E-02 2.478234215E-03 2.282233703E-01
 -4.534953694E-02 -1.000000000E-03 -5.414191950E-02 2.465506508E-03 2.253053486E-01
 -4.052334008E-02 -1.000000000E-03 -5.480351716E-02 2.452170547E-03 2.227093140E-01
 -3.519069316E-02 -1.000000000E-03 -5.551635797E-02 2.438821477E-03 2.201268535E-01
 -3.010573824E-02 -1.000000000E-03 -5.617685001E-02 2.420834024E-03 2.178056359E-01
 -2.455767356E-02 -1.000000000E-03 -5.687939211E-02 2.401159067E-03 2.154225254E-01
 -1.934364807E-02 -1.000000000E-03 -5.752035025E-02 2.382786875E-03 2.133977917E-01
 -1.361313153E-02 -1.000000000E-03 -5.820633683E-02 2.363711397E-03 2.111775017E-01
 -8.352548203E-03 -1.000000000E-03 -5.881783411E-02 2.345905132E-03 2.091955355E-01
 -2.323399454E-03 -1.000000000E-03 -5.949899162E-02 2.325181849E-03 2.070607155E-01
 2.973643521E-03 -1.000000000E-03 -6.008063285E-02 2.308060763E-03 2.052646155E-01
 9.244852030E-03 -1.000000000E-03 -6.074840086E-02 2.287499570E-03 2.032686352E-01
 1.455490792E-02 -1.000000000E-03 -6.129822891E-02 2.271150914E-03 2.017483597E-01
 2.108389358E-02 -1.000000000E-03 -6.195257784E-02 2.252302571E-03 2.000999516E-01
 2.652737150E-02 -1.000000000E-03 -6.248269085E-02 2.237562117E-03 1.987235587E-01
 3.321656542E-02 -1.000000000E-03 -6.311264967E-02 2.218415901E-03 1.971626566E-01
 3.875277435E-02 -1.000000000E-03 -6.361845192E-02 2.204023884E-03 1.959492049E-01
 4.564364466E-02 -1.000000000E-03 -6.422702611E-02 2.186256988E-03 1.945797734E-01
 5.154658837E-02 -1.000000000E-03 -6.473150535E-02 2.172425808E-03 1.934876067E-01
 5.868262389E-02 -1.000000000E-03 -6.532042355E-02 2.153251259E-03 1.922130195E-01
 6.490855945E-02 -1.000000000E-03 -6.581632153E-02 2.137962195E-03 1.912915556E-01
 7.229119527E-02 -1.000000000E-03 -6.638347499E-02 2.119258237E-03 1.905360320E-01
 7.860069905E-02 -1.000000000E-03 -6.685082124E-02 2.104241215E-03 1.897992190E-01
 8.618837843E-02 -1.000000000E-03 -6.739129316E-02 2.083632015E-03 1.888786104E-01
 9.256950051E-02 -1.000000000E-03 -6.782969470E-02 2.066400302E-03 1.882245657E-01
 1.005078865E-01 -1.000000000E-03 -6.835207785E-02 2.046390764E-03 1.874146507E-01
 1.072192491E-01 -1.000000000E-03 -6.877734868E-02 2.028083198E-03 1.869303280E-01
 1.222613164E-01 -1.000000000E-03 -6.967113816E-02 1.987840437E-03 1.863962723E-01
 1.308207262E-01 -1.000000000E-03 -7.014505066E-02 1.961756124E-03 1.861892301E-01
 1.072192491E-01 -1.000000000E-03 -6.877734868E-02 2.028083198E-03 1.869303280E-01
 1.154650047E-01 -1.000000000E-03 -6.927630005E-02 2.006768369E-03 1.866750872E-01
 1.376767624E-01 -1.000000000E-03 -7.050832963E-02 1.943568960E-03 1.861310225E-01
 1.465261161E-01 -1.000000000E-03 -7.095440673E-02 1.921496469E-03 1.862737315E-01
 1.536036161E-01 -1.000000000E-03 -7.129458058E-02 1.903485238E-03 1.864282964E-01
 1.627610626E-01 -1.000000000E-03 -7.171156613E-02 1.881345545E-03 1.867421302E-01
 1.703316455E-01 -1.000000000E-03 -7.203905910E-02 1.864419414E-03 1.870608902E-01
 1.799357522E-01 -1.000000000E-03 -7.243014781E-02 1.843242550E-03 1.876197541E-01
 1.878156952E-01 -1.000000000E-03 -7.273336024E-02 1.825418769E-03 1.881756941E-01
 1.977317391E-01 -1.000000000E-03 -7.309012183E-02 1.802900633E-03 1.889923407E-01
 2.057795160E-01 -1.000000000E-03 -7.336220264E-02 1.785417423E-03 1.897196585E-01
 2.160571102E-01 -1.000000000E-03 -7.368459871E-02 1.764723743E-03 1.907269918E-01
 2.244816070E-01 -1.000000000E-03 -7.393093137E-02 1.746784899E-03 1.916351500E-01
 2.351329797E-01 -1.000000000E-03 -7.421702983E-02 1.721501247E-03 1.929683581E-01
 2.439446695E-01 -1.000000000E-03 -7.443520515E-02 1.701726158E-03 1.941826095E-01
 2.553138426E-01 -1.000000000E-03 -7.468969774E-02 1.675123113E-03 1.959164368E-01
 2.657750172E-01 -1.000000000E-03 -7.490038822E-02 1.657797848E-03 1.976143158E-01
 2.776114144E-01 -1.000000000E-03 -7.511217936E-02 1.640494051E-03 1.997480520E-01
 2.877347991E-01 -1.000000000E-03 -7.526975522E-02 1.623350324E-03 2.016947956E-01
 3.000613709E-01 -1.000000000E-03 -7.543552103E-02 1.593808248E-03 2.041907300E-01
 3.106493845E-01 -1.000000000E-03 -7.555449236E-02 1.572328177E-03 2.064179278E-01
 3.233598705E-01 -1.000000000E-03 -7.567000951E-02 1.542600990E-03 2.091083273E-01
 3.342132909E-01 -1.000000000E-03 -7.574568480E-02 1.518832128E-03 2.115476445E-01
 3.472818664E-01 -1.000000000E-03 -7.580956369E-02 1.490894335E-03 2.146556868E-01
 3.580664088E-01 -1.000000000E-03 -7.584049976E-02 1.464926286E-03 2.173398731E-01
 3.715072280E-01 -1.000000000E-03 -7.585150559E-02 1.432476064E-03 2.208615875E-01
 3.830236704E-01 -1.000000000E-03 -7.583841320E-02 1.408202938E-03 2.239788303E-01
 3.971411082E-01 -1.000000000E-03 -7.579332988E-02 1.378386995E-03 2.279740356E-01
 4.090372387E-01 -1.000000000E-03 -7.573194177E-02 1.353218128E-03 2.314710797E-01
 4.236202818E-01 -1.000000000E-03 -7.562682787E-02 1.322014020E-03 2.359326931E-01
 4.357636243E-01 -1.000000000E-03 -7.551566455E-02 1.295854042E-03 2.397586991E-01
 4.508826767E-01 -1.000000000E-03 -7.534621495E-02 1.263261684E-03 2.446474102E-01
 4.635996703E-01 -1.000000000E-03 -7.517901751E-02 1.235513632E-03 2.489726779E-01
 4.791953693E-01 -1.000000000E-03 -7.494149392E-02 1.196833723E-03 2.545358074E-01
 4.921790484E-01 -1.000000000E-03 -7.471897524E-02 1.168078771E-03 2.593368743E-01
 5.084626969E-01 -1.000000000E-03 -7.440460516E-02 1.129485335E-03 2.655905770E-01
 5.218443863E-01 -1.000000000E-03 -7.412112306E-02 1.099639536E-03 2.708825129E-01
 5.388377437E-01 -1.000000000E-03 -7.372188347E-02 1.060371959E-03 2.778467927E-01
 -1.386022053E-01 -1.000000000E-03 6.022461589E-02 4.023674310E-03 -3.380488562E-01
 -1.346775341E-01 -1.000000000E-03 6.048327118E-02 3.971930888E-03 -3.333961311E-01
 -1.315257174E-01 -1.000000000E-03 6.067552404E-02 3.924709312E-03 -3.300798391E-01
 -1.281564664E-01 -1.000000000E-03 6.086493478E-02 3.874348002E-03 -3.263371145E-01
 -1.249112681E-01 -1.000000000E-03 6.103236720E-02 3.835994694E-03 -3.226093157E-01
 -1.212400452E-01 -1.000000000E-03 6.120522416E-02 3.782354907E-03 -3.184955603E-01
 -1.177651838E-01 -1.000000000E-03 6.135198649E-02 3.716528828E-03 -3.142925833E-01
 -1.145234152E-01 -1.000000000E-03 6.147607925E-02 3.669840855E-03 -3.108688400E-01
 -1.108453330E-01 -1.000000000E-03 6.160049392E-02 3.614077717E-03 -3.069979429E-01
 -1.074817284E-01 -1.000000000E-03 6.170073391E-02 3.567072931E-03 -3.035014012E-01
 -1.036659670E-01 -1.000000000E-03 6.179826383E-02 3.519872322E-03 -2.993083588E-01
 -1.002249450E-01 -1.000000000E-03 6.187260303E-02 3.475678042E-03 -2.957939299E-01
 -9.626337986E-02 -1.000000000E-03 6.194208599E-02 3.432539255E-03 -2.918701386E-01
 -9.281821393E-02 -1.000000000E-03 6.198954571E-02 3.392512178E-03 -2.883734826E-01
 -8.876277034E-02 -1.000000000E-03 6.202937528E-02 3.347590300E-03 -2.841289970E-01
 -8.526565605E-02 -1.000000000E-03 6.205134950E-02 3.311298215E-03 -2.805580796E-01
 -8.105281058E-02 -1.000000000E-03 6.206146650E-02 3.269865445E-03 -2.761618745E-01
 -7.747072033E-02 -1.000000000E-03 6.205758414E-02 3.235812972E-03 -2.725353042E-01
 -7.315541837E-02 -1.000000000E-03 6.203674531E-02 3.194955576E-03 -2.683154751E-01
 -6.950257762E-02 -1.000000000E-03 6.200652117E-02 3.161993697E-03 -2.646873379E-01
 -6.504745198E-02 -1.000000000E-03 6.195373934E-02 3.122588258E-03 -2.602428583E-01
 -6.124704961E-02 -1.000000000E-03 6.189561086E-02 3.089021398E-03 -2.565212183E-01
 -5.669966150E-02 -1.000000000E-03 6.181054929E-02 3.048805914E-03 -2.519541543E-01
 -5.283994713E-02 -1.000000000E-03 6.172525300E-02 3.016390710E-03 -2.481558865E-01
 -4.813722566E-02 -1.000000000E-03 6.160574329E-02 2.978087093E-03 -2.434939512E-01
 -4.413986054E-02 -1.000000000E-03 6.149119032E-02 2.946394501E-03 -2.395756205E-01
 -3.929555278E-02 -1.000000000E-03 6.133626573E-02 2.907597740E-03 -2.348213035E-01
 -3.521973719E-02 -1.000000000E-03 6.119332697E-02 2.876373261E-03 -2.308560967E-01
 -3.020616717E-02 -1.000000000E-03 6.100081230E-02 2.840112897E-03 -2.259338959E-01
 -2.605391896E-02 -1.000000000E-03 6.082900187E-02 2.808401823E-03 -2.219408337E-01
 -2.094025383E-02 -1.000000000E-03 6.060070569E-02 2.771437168E-03 -2.171103160E-01
 -1.667214056E-02 -1.000000000E-03 6.039759902E-02 2.739080606E-03 -2.130931930E-01
 -1.143954113E-02 -1.000000000E-03 6.013236922E-02 2.703964720E-03 -2.081569422E-01
 -7.017794365E-03 -1.000000000E-03 5.989506705E-02 2.669803153E-03 -2.040243449E-01
 -1.658470194E-03 -1.000000000E-03 5.959149368E-02 2.632479846E-03 -1.989518602E-01
 2.922664000E-03 -1.000000000E-03 5.931853412E-02 2.600733193E-03 -1.946242308E-01
 8.515293258E-03 -1.000000000E-03 5.896876365E-02 2.564126745E-03 -1.891270234E-01
 1.319094477E-02 -1.000000000E-03 5.866333883E-02 2.536288550E-03 -1.846275418E-01
 1.897218211E-02 -1.000000000E-03 5.826819592E-02 2.498321887E-03 -1.791162457E-01
 2.376870447E-02 -1.000000000E-03 5.792779609E-02 2.471708797E-03 -1.745233058E-01
 2.980091865E-02 -1.000000000E-03 5.748120525E-02 2.435451321E-03 -1.688090546E-01
 3.466688030E-02 -1.000000000E-03 5.710860939E-02 2.406892155E-03 -1.641812683E-01
 4.091569705E-02 -1.000000000E-03 5.661116788E-02 2.368655763E-03 -1.581999416E-01
 4.586237733E-02 -1.000000000E-03 5.620508789E-02 2.339085301E-03 -1.534938138E-01
 5.237231010E-02 -1.000000000E-03 5.565134756E-02 2.302116712E-03 -1.472669681E-01
 5.749201730E-02 -1.000000000E-03 5.520316563E-02 2.272468004E-03 -1.423954482E-01
 6.421450526E-02 -1.000000000E-03 5.459521575E-02 2.233610734E-03 -1.358870645E-01
 6.942373507E-02 -1.000000000E-03 5.411136655E-02 2.205442189E-03 -1.309526265E-01
 7.637102893E-02 -1.000000000E-03 5.344658816E-02 2.170036763E-03 -1.245538805E-01
 8.173832249E-02 -1.000000000E-03 5.292022771E-02 2.140574630E-03 -1.195090780E-01
 8.889937427E-02 -1.000000000E-03 5.219792720E-02 2.102314559E-03 -1.125576792E-01
 9.448921993E-02 -1.000000000E-03 5.162126757E-02 2.073501052E-03 -1.073635927E-01
 1.018579501E-01 -1.000000000E-03 5.084070253E-02 2.038002043E-03 -1.005669500E-01
 1.076705060E-01 -1.000000000E-03 5.021164700E-02 2.009707843E-03 -9.517633200E-02
 7.471460240E-01 -1.000000000E-03 -6.536680706E-02 7.008133299E-04 3.909616257E-01
 7.460919183E-01 -1.000000000E-03 -6.542580043E-02 7.095994501E-04 3.895785690E-01
 7.449560542E-01 -1.000000000E-03 -6.549018781E-02 5.123082809E-04 4.336925061E-01
 7.429656164E-01 -1.000000000E-03 -6.560301879E-02 2.983287150E-04 4.287473085E-01
 7.417624463E-01 -1.000000000E-03 -6.566987494E-02 1.990149648E-04 4.261660615E-01
 7.399726078E-01 -1.000000000E-03 -6.576825479E-02 2.182529646E-04 4.236290006E-01
 7.374085195E-01 -1.000000000E-03 -6.590903058E-02 2.614773456E-04 4.191911507E-01
 7.349552277E-01 -1.000000000E-03 -6.604566889E-02 2.740643787E-04 4.153893710E-01
 7.320890730E-01 -1.000000000E-03 -6.620072052E-02 3.106410927E-04 4.111639713E-01
 7.285041776E-01 -1.000000000E-03 -6.639254862E-02 3.655275078E-04 4.065110354E-01
 7.236716222E-01 -1.000000000E-03 -6.664831311E-02 4.192878697E-04 4.002610219E-01
 7.184918130E-01 -1.000000000E-03 -6.692202225E-02 4.334856637E-04 3.940248219E-01
 7.151172847E-01 -1.000000000E-03 -6.709626997E-02 4.447854819E-04 3.897462149E-01
 7.081569878E-01 -1.000000000E-03 -6.745233521E-02 4.337919578E-04 3.831757875E-01
 7.048271492E-01 -1.000000000E-03 -6.761880474E-02 4.536618017E-04 3.798565803E-01
 6.964349926E-01 -1.000000000E-03 -6.802369566E-02 5.463417489E-04 3.707758998E-01
 6.881048468E-01 -1.000000000E-03 -6.842076801E-02 5.897333175E-04 3.633058820E-01
 6.770742136E-01 -1.000000000E-03 -6.892563081E-02 6.782099355E-04 3.544547742E-01
 6.661659271E-01 -1.000000000E-03 -6.941297814E-02 7.115051698E-04 3.460427923E-01
 6.526724024E-01 -1.000000000E-03 -6.997768804E-02 7.645540968E-04 3.368664651E-01
 5.700355537E-01 -1.000000000E-03 -7.288561393E-02 9.787972148E-04 2.914837262E-01
 5.522170859E-01 -1.000000000E-03 -7.338102662E-02 1.028265240E-03 2.835590883E-01
 5.388377437E-01 -1.000000000E-03 -7.372188347E-02 1.060371959E-03 2.778467927E-01
 6.371439714E-01 -1.000000000E-03 -7.060919728E-02 8.191251447E-04 3.269424915E-01
 6.198281279E-01 -1.000000000E-03 -7.125321022E-02 8.331847059E-04 3.167917393E-01
 6.026681212E-01 -1.000000000E-03 -7.186119948E-02 8.931994417E-04 3.076433675E-01
 5.841155441E-01 -1.000000000E-03 -7.246164266E-02 9.402162434E-04 2.981832160E-01
 -2.452581350E-01 -1.000000000E-03 3.097602577E-02 4.551605460E-03 -1.115773860E-01
 -2.460488003E-01 -1.000000000E-03 2.987430519E-02 4.144585688E-03 -4.458251013E-02
 -2.445578174E-01 -1.000000000E-03 3.183212213E-02 4.839609591E-03 -1.589692496E-01
 -2.436918328E-01 -1.000000000E-03 3.281008216E-02 5.119386555E-03 -2.044737079E-01
 -2.428425808E-01 -1.000000000E-03 3.366697201E-02 5.327031436E-03 -2.417465207E-01
 -2.418946956E-01 -1.000000000E-03 3.456298607E-02 5.527146769E-03 -2.748184112E-01
 -2.409286598E-01 -1.000000000E-03 3.539278702E-02 5.676713135E-03 -3.027532691E-01
 -2.399230963E-01 -1.000000000E-03 3.620971997E-02 5.812625314E-03 -3.261848370E-01
 -2.388503829E-01 -1.000000000E-03 3.700975783E-02 5.900715168E-03 -3.477828227E-01
 -2.377576914E-01 -1.000000000E-03 3.778388270E-02 5.970511968E-03 -3.637791253E-01
 -2.366082233E-01 -1.000000000E-03 3.853821698E-02 6.012746481E-03 -3.792843633E-01
 -2.354528896E-01 -1.000000000E-03 3.926149092E-02 6.050943718E-03 -3.891843223E-01
 -2.341827507E-01 -1.000000000E-03 4.000375662E-02 6.062435316E-03 -4.009971237E-01
 -2.329255467E-01 -1.000000000E-03 4.070773778E-02 6.073353184E-03 -4.057317086E-01
 -2.315619735E-01 -1.000000000E-03 4.142302957E-02 6.066558886E-03 -4.141612325E-01
 -2.302497611E-01 -1.000000000E-03 4.208390377E-02 6.075708498E-03 -4.187677430E-01
 -2.287795810E-01 -1.000000000E-03 4.277886060E-02 6.056233709E-03 -4.247711512E-01
 -2.273793866E-01 -1.000000000E-03 4.341634176E-02 6.047712641E-03 -4.267685001E-01
 -2.257870005E-01 -1.000000000E-03 4.409766740E-02 6.015423698E-03 -4.309166191E-01
 -2.244045658E-01 -1.000000000E-03 4.467152256E-02 6.022977351E-03 -4.313306888E-01
 -2.226268335E-01 -1.000000000E-03 4.536296549E-02 5.962541509E-03 -4.331387215E-01
 -2.214928290E-01 -1.000000000E-03 4.579755272E-02 6.023050388E-03 -4.333484875E-01
 -2.203587529E-01 -1.000000000E-03 4.620294592E-02 5.930666504E-03 -4.340174947E-01
 -2.183501138E-01 -1.000000000E-03 4.691292191E-02 5.887741246E-03 -4.327771780E-01
 -2.168965328E-01 -1.000000000E-03 4.739474881E-02 5.856275857E-03 -4.321197770E-01
 -2.148317379E-01 -1.000000000E-03 4.805949009E-02 5.785322877E-03 -4.325237036E-01
 -2.133052372E-01 -1.000000000E-03 4.852644618E-02 5.757795770E-03 -4.303488856E-01
 -2.110257214E-01 -1.000000000E-03 4.919506210E-02 5.656423014E-03 -4.295048797E-01
 -2.095974463E-01 -1.000000000E-03 4.959926370E-02 5.680921080E-03 -4.262412627E-01
 -2.076749490E-01 -1.000000000E-03 5.011533201E-02 5.486914047E-03 -4.250312733E-01
 -2.065871757E-01 -1.000000000E-03 5.040581535E-02 5.444880121E-03 -4.241991779E-01
 -2.044328825E-01 -1.000000000E-03 5.094986571E-02 5.344053942E-03 -4.232186886E-01
 -2.030473976E-01 -1.000000000E-03 5.128724352E-02 5.282444956E-03 -4.216923250E-01
 -2.010702742E-01 -1.000000000E-03 5.175718101E-02 5.306311365E-03 -4.195567971E-01
 -1.991716752E-01 -1.000000000E-03 5.218287696E-02 5.213110975E-03 -4.160303348E-01
 -1.931822748E-01 -1.000000000E-03 5.344420641E-02 5.029505692E-03 -4.084120913E-01
 -1.905696119E-01 -1.000000000E-03 5.395105690E-02 4.972888090E-03 -4.051470284E-01
 -1.888019339E-01 -1.000000000E-03 5.427621521E-02 4.917410001E-03 -4.030624981E-01
 -1.861729641E-01 -1.000000000E-03 5.474710598E-02 4.896596530E-03 -3.991522781E-01
 -1.975436352E-01 -1.000000000E-03 5.254442910E-02 5.165010337E-03 -4.139752238E-01
 -1.950058550E-01 -1.000000000E-03 5.307625595E-02 5.098330340E-03 -4.101098515E-01
 -1.838602733E-01 -1.000000000E-03 5.513664206E-02 4.833048668E-03 -3.960132733E-01
 -1.812048599E-01 -1.000000000E-03 5.557233614E-02 4.805798897E-03 -3.929630555E-01
 -1.782161439E-01 -1.000000000E-03 5.602895006E-02 4.733576713E-03 -3.890274159E-01
 -1.755795601E-01 -1.000000000E-03 5.642047326E-02 4.690043025E-03 -3.847654305E-01
 -1.705957466E-01 -1.000000000E-03 5.710253244E-02 4.620682591E-03 -3.784481461E-01
 -1.729334659E-01 -1.000000000E-03 5.678446612E-02 4.631507844E-03 -3.806137541E-01
 -1.680319689E-01 -1.000000000E-03 5.742659632E-02 4.454831534E-03 -3.736252180E-01
 -1.638158823E-01 -1.000000000E-03 5.793347135E-02 4.424317520E-03 -3.692644786E-01