TITLE     = "Surface mesh and solution"
VARIABLES = "x"
"y"
"z"
"cfx"
"Cp"
DATASETAUXDATA alpha_deg="  0.0000000E+00"
DATASETAUXDATA beta_deg="  0.0000000E+00"
DATASETAUXDATA bref="  0.7500000"
DATASETAUXDATA cref="   1.000000"
DATASETAUXDATA itranflg="           0"
DATASETAUXDATA ivisc="           2"
DATASETAUXDATA mach="  0.2000000"
DATASETAUXDATA reue_mil="   4.600000"
DATASETAUXDATA sref="  0.7500000"
DATASETAUXDATA tinf_r="   521.0000"
DATASETAUXDATA xmc="  0.0000000E+00"
DATASETAUXDATA ymc="  0.0000000E+00"
DATASETAUXDATA zmc="  0.0000000E+00"
ZONE T="USM3D-ME, MITAdapted_X0080k, Slice: Y=-0.001"
 STRANDID=0, SOLUTIONTIME=0
 Nodes=332, Elements=311, ZONETYPE=FELineSeg
 DATAPACKING=POINT
 DT=(DOUBLE DOUBLE DOUBLE DOUBLE DOUBLE )
 -2.464507525E-01 -1.000000000E-03 1.123867775E-02 -3.574195088E-06 9.664905027E-01
 -2.474864957E-01 -1.000000000E-03 1.332783770E-02 -3.056546118E-05 9.431154604E-01
 -2.470843389E-01 -1.000000000E-03 1.241513616E-02 -1.721740444E-05 9.548448330E-01
 -2.465938154E-01 -1.000000000E-03 1.150371540E-02 -6.357456805E-06 9.637893961E-01
 -2.487634971E-01 -1.000000000E-03 1.712370308E-02 -5.442566827E-05 8.456615509E-01
 -2.487633551E-01 -1.000000000E-03 1.712265689E-02 -5.444041239E-05 8.457099913E-01
 -2.487629577E-01 -1.000000000E-03 1.712128495E-02 -5.443369454E-05 8.457540363E-01
 -2.490664778E-01 -1.000000000E-03 2.088003144E-02 3.215547977E-05 6.547100371E-01
 -2.408270278E-01 -1.000000000E-03 4.190762968E-03 3.736125272E-04 9.059924571E-01
 -2.388337756E-01 -1.000000000E-03 2.452582644E-03 4.861848271E-04 8.683166923E-01
 -2.421880466E-01 -1.000000000E-03 5.658324058E-03 2.509695216E-04 9.249160787E-01
 -2.361890343E-01 -1.000000000E-03 1.446416676E-04 5.973344155E-04 8.224514470E-01
 -2.480655847E-01 -1.000000000E-03 1.467961649E-02 -4.431687500E-05 9.249487114E-01
 -2.436321717E-01 -1.000000000E-03 7.230383686E-03 1.342196297E-04 9.450913263E-01
 -2.446228980E-01 -1.000000000E-03 8.565893208E-03 8.909219251E-05 9.547465728E-01
 -2.277492280E-01 -1.000000000E-03 -5.592839691E-03 1.280668793E-03 7.050197868E-01
 -2.327893123E-01 -1.000000000E-03 -2.287195156E-03 9.603002330E-04 7.733348582E-01
 -2.463102329E-01 -1.000000000E-03 1.101229765E-02 1.272290427E-06 9.660895993E-01
 -2.456870042E-01 -1.000000000E-03 9.998377989E-03 2.268315941E-05 9.651412923E-01
 -2.490664778E-01 -1.000000000E-03 2.088003144E-02 3.215547977E-05 6.547100371E-01
 -2.490486745E-01 -1.000000000E-03 2.178893569E-02 1.092825554E-04 5.887568593E-01
 -2.488524855E-01 -1.000000000E-03 2.313976527E-02 2.599345405E-04 4.741075213E-01
 -2.479262038E-01 -1.000000000E-03 2.639207635E-02 8.419309431E-04 2.333286127E-01
 -2.486436067E-01 -1.000000000E-03 2.407715783E-02 3.310684146E-04 4.026097703E-01
 -2.463766336E-01 -1.000000000E-03 2.938685971E-02 1.773345464E-03 4.857183812E-03
 -2.468203968E-01 -1.000000000E-03 2.854257660E-02 1.523519533E-03 6.826511390E-02
 -2.463005253E-01 -1.000000000E-03 2.951299091E-02 1.827478926E-03 -5.267169396E-03
 5.894161542E-01 -1.000000000E-03 -3.040968238E-02 6.111857210E-04 2.860703254E-01
 6.064046147E-01 -1.000000000E-03 -3.398625853E-02 5.845258888E-04 2.992210499E-01
 5.733418265E-01 -1.000000000E-03 -2.707771816E-02 6.688404037E-04 2.720593553E-01
 5.503286822E-01 -1.000000000E-03 -2.237394852E-02 8.442188539E-04 2.558819921E-01
 1.909142246E-01 -1.000000000E-03 3.993152136E-02 1.787853677E-03 -2.662727582E-02
 1.570056146E-01 -1.000000000E-03 4.437818991E-02 2.009924593E-03 -5.620193483E-02
 1.667094889E-01 -1.000000000E-03 4.311967009E-02 1.944500272E-03 -4.752416361E-02
 1.610578011E-01 -1.000000000E-03 4.387133531E-02 1.952867872E-03 -5.275409746E-02
 3.436653957E-01 -1.000000000E-03 1.631852794E-02 1.511905986E-03 1.046247704E-01
 3.216036425E-01 -1.000000000E-03 2.002884957E-02 1.473427037E-03 8.404634196E-02
 1.349803517E-01 -1.000000000E-03 4.708710691E-02 1.895727988E-03 -7.543134713E-02
 1.207907842E-01 -1.000000000E-03 4.873176228E-02 1.800746701E-03 -9.199766247E-02
 9.371740686E-02 -1.000000000E-03 5.170323283E-02 2.054704529E-03 -1.173154681E-01
 4.959481924E-01 -1.000000000E-03 -1.155107036E-02 9.295584370E-04 2.156141270E-01
 5.125851768E-01 -1.000000000E-03 -1.482961534E-02 9.254771314E-04 2.285397827E-01
 4.394997001E-01 -1.000000000E-03 -8.055236185E-04 1.219661595E-03 1.807244955E-01
 4.620937953E-01 -1.000000000E-03 -5.067984505E-03 1.163708928E-03 1.926472428E-01
 4.498000427E-01 -1.000000000E-03 -2.716253010E-03 1.184975412E-03 1.854343681E-01
 4.047533821E-01 -1.000000000E-03 5.586830404E-03 7.856754618E-04 1.540640344E-01
 3.959341977E-01 -1.000000000E-03 7.172111522E-03 8.149728066E-04 1.458412263E-01
 5.348817498E-01 -1.000000000E-03 -1.924845459E-02 7.873175414E-04 2.446253193E-01
 2.272107399E-01 -1.000000000E-03 3.479989624E-02 1.972433629E-03 6.043258237E-03
 2.325550968E-01 -1.000000000E-03 3.401931718E-02 1.939952155E-03 1.078368047E-02
 2.297656474E-01 -1.000000000E-03 3.443763525E-02 1.956776995E-03 8.185412137E-03
 2.882796801E-01 -1.000000000E-03 2.547265479E-02 1.540926495E-03 5.721490725E-02
 2.978670920E-01 -1.000000000E-03 2.391670008E-02 1.492186342E-03 6.486338772E-02
 2.813255650E-01 -1.000000000E-03 2.656140367E-02 1.595932840E-03 5.206823474E-02
 6.230355821E-01 -1.000000000E-03 -3.751527081E-02 5.315261516E-04 3.135463338E-01
 6.431401327E-01 -1.000000000E-03 -4.186216090E-02 4.144490096E-04 3.301563577E-01
 3.542735536E-01 -1.000000000E-03 1.449035324E-02 1.444162151E-03 1.142793263E-01
 7.091031747E-02 -1.000000000E-03 5.397176927E-02 1.834510387E-03 -1.348026172E-01
 8.162504166E-02 -1.000000000E-03 5.291053698E-02 1.915912661E-03 -1.257716957E-01
 5.673177521E-02 -1.000000000E-03 5.524166109E-02 1.737027911E-03 -1.511649774E-01
 1.055304210E-01 -1.000000000E-03 5.042705988E-02 1.887658542E-03 -1.077048386E-01
 6.814266929E-01 -1.000000000E-03 -5.029609340E-02 3.280259389E-04 3.616460336E-01
 7.032283102E-01 -1.000000000E-03 -5.522709854E-02 3.569678919E-04 3.813046238E-01
 6.655595998E-01 -1.000000000E-03 -4.677463827E-02 3.373499637E-04 3.477093758E-01
 6.543762060E-01 -1.000000000E-03 -4.429980969E-02 3.287513159E-04 3.409874441E-01
 -2.239077132E-01 -1.000000000E-03 4.487024547E-02 3.882746807E-03 -4.359366936E-01
 -2.360454702E-01 -1.000000000E-03 3.889977593E-02 4.743723141E-03 -3.701448837E-01
 -2.376315556E-01 -1.000000000E-03 3.784569872E-02 4.417692063E-03 -3.514924469E-01
 -1.605140113E-01 -1.000000000E-03 5.829753903E-02 2.864370382E-03 -3.627420289E-01
 -1.535094034E-01 -1.000000000E-03 5.899477489E-02 2.643387456E-03 -3.533923576E-01
 -1.702589817E-01 -1.000000000E-03 5.712075875E-02 2.747281445E-03 -3.805831442E-01
 -1.498458640E-01 -1.000000000E-03 5.934504853E-02 2.728366982E-03 -3.485686188E-01
 -1.471782625E-01 -1.000000000E-03 5.955403654E-02 2.801145265E-03 -3.488597250E-01
 -2.420896791E-01 -1.000000000E-03 3.438990624E-02 3.841005347E-03 -2.485625911E-01
 -1.718234221E-01 -1.000000000E-03 5.693680449E-02 2.738176737E-03 -3.832448165E-01
 -1.727695887E-01 -1.000000000E-03 5.680666160E-02 2.720735677E-03 -3.845978609E-01
 -1.901428266E-01 -1.000000000E-03 5.400362833E-02 3.617857200E-03 -4.092194264E-01
 -1.858004964E-01 -1.000000000E-03 5.479735270E-02 3.044067678E-03 -4.029678147E-01
 -2.322089349E-01 -1.000000000E-03 4.108003079E-02 2.618986435E-03 -4.113362285E-01
 -2.287237608E-01 -1.000000000E-03 4.280324822E-02 3.424109513E-03 -4.209792835E-01
 -2.331692460E-01 -1.000000000E-03 4.057643206E-02 3.072119428E-03 -3.986938901E-01
 -2.347645865E-01 -1.000000000E-03 3.963850008E-02 4.050894835E-03 -3.876071895E-01
 -2.254248651E-01 -1.000000000E-03 4.423414418E-02 3.588346073E-03 -4.298788528E-01
 -2.280509003E-01 -1.000000000E-03 4.311815324E-02 3.590468120E-03 -4.214263337E-01
 -2.217729385E-01 -1.000000000E-03 4.565436845E-02 3.703594259E-03 -4.393437170E-01
 -2.188371646E-01 -1.000000000E-03 4.674606074E-02 3.847580689E-03 -4.435424534E-01
 -2.173877967E-01 -1.000000000E-03 4.721642618E-02 3.978018321E-03 -4.424810591E-01
 -2.184107004E-01 -1.000000000E-03 4.689078938E-02 3.784469629E-03 -4.433599570E-01
 -4.255688015E-02 -1.000000000E-03 6.141036553E-02 2.381001634E-03 -2.426706599E-01
 -7.650254250E-02 -1.000000000E-03 6.199602356E-02 2.238222796E-03 -2.758127720E-01
 -5.549158403E-02 -1.000000000E-03 6.178402870E-02 2.517242292E-03 -2.546399496E-01
 -3.224445199E-02 -1.000000000E-03 6.108070573E-02 2.612988108E-03 -2.333061099E-01
 -4.023594850E-03 -1.000000000E-03 5.972460641E-02 2.267503614E-03 -2.077463929E-01
 -1.378384993E-01 -1.000000000E-03 6.027772927E-02 2.682821245E-03 -3.429669379E-01
 -1.349898567E-01 -1.000000000E-03 6.044035173E-02 2.474102026E-03 -3.373700923E-01
 -1.052307312E-01 -1.000000000E-03 6.176016902E-02 2.074628025E-03 -3.142518871E-01
 -1.000861770E-01 -1.000000000E-03 6.186547188E-02 1.972207695E-03 -2.926117868E-01
 -8.610465920E-02 -1.000000000E-03 6.201583260E-02 2.326660994E-03 -2.868186326E-01
 -2.003212412E-01 -1.000000000E-03 5.191688587E-02 4.613802971E-03 -4.284343042E-01
 -2.015492945E-01 -1.000000000E-03 5.164564788E-02 4.631560438E-03 -4.306378355E-01
 -2.022612508E-01 -1.000000000E-03 5.147018776E-02 4.637177402E-03 -4.303869619E-01
 -1.957654201E-01 -1.000000000E-03 5.292185391E-02 4.378612244E-03 -4.291235991E-01
 -2.087523966E-01 -1.000000000E-03 4.982972887E-02 4.120241776E-03 -4.277811189E-01
 -2.102408416E-01 -1.000000000E-03 4.941071807E-02 4.168226663E-03 -4.323681162E-01
 -1.760084619E-02 -1.000000000E-03 6.035955816E-02 2.383388929E-03 -2.208553430E-01
 4.547987717E-02 -1.000000000E-03 5.623816009E-02 1.649892244E-03 -1.615973848E-01
 5.673177521E-02 -1.000000000E-03 5.524166109E-02 1.737027911E-03 -1.511649774E-01
 -1.212308820E-01 -1.000000000E-03 6.120720731E-02 2.075728314E-03 -3.162039743E-01
 -1.186770108E-01 -1.000000000E-03 6.129840765E-02 2.035481791E-03 -3.166848501E-01
 -8.318304809E-02 -1.000000000E-03 6.205799940E-02 2.272020146E-03 -2.833585534E-01
 2.491296598E-02 -1.000000000E-03 5.784390703E-02 1.599418670E-03 -1.795767018E-01
 1.686865494E-02 -1.000000000E-03 5.838191174E-02 1.638448025E-03 -1.874891172E-01
 -8.060113522E-02 -1.000000000E-03 6.205414670E-02 2.363995495E-03 -2.806304228E-01
 -2.439172339E-01 -1.000000000E-03 3.256822475E-02 2.906023109E-03 -1.769154086E-01
 2.992906569E-02 -1.000000000E-03 5.744874101E-02 1.584092838E-03 -1.751583899E-01
 -2.128683339E-01 -1.000000000E-03 -1.343371427E-02 1.724767107E-03 5.671478292E-01
 -2.235216948E-01 -1.000000000E-03 -8.046024704E-03 1.525655280E-03 6.590857534E-01
 -2.110739166E-01 -1.000000000E-03 -1.427596125E-02 1.806247771E-03 5.532693817E-01
 -2.004278583E-01 -1.000000000E-03 -1.872883524E-02 2.448406060E-03 4.839003454E-01
 -1.228629805E-01 -1.000000000E-03 -4.078372415E-02 2.772177381E-03 2.902356732E-01
 -9.957568088E-02 -1.000000000E-03 -4.540717459E-02 2.754583914E-03 2.621848131E-01
 -9.471412289E-02 -1.000000000E-03 -4.630679507E-02 2.600141062E-03 2.553274409E-01
 -9.619240748E-02 -1.000000000E-03 -4.604085618E-02 2.537611321E-03 2.566019328E-01
 -1.624608616E-01 -1.000000000E-03 -3.117121384E-02 1.919293618E-03 3.545447214E-01
 -1.560069471E-01 -1.000000000E-03 -3.291596858E-02 2.215854053E-03 3.453133119E-01
 -1.707588412E-01 -1.000000000E-03 -2.878892695E-02 2.521932024E-03 3.775351902E-01
 -1.723154622E-01 -1.000000000E-03 -2.832146811E-02 2.580080632E-03 3.824400397E-01
 -1.712672181E-01 -1.000000000E-03 -2.864282245E-02 2.499739578E-03 3.784448905E-01
 -1.711504755E-01 -1.000000000E-03 -2.867758715E-02 2.496238666E-03 3.783100294E-01
 -1.239876879E-01 -1.000000000E-03 -4.053577265E-02 2.752679997E-03 2.914825505E-01
 -1.212761054E-01 -1.000000000E-03 -4.110920583E-02 2.799589893E-03 2.880984106E-01
 -1.544809818E-01 -1.000000000E-03 -3.331872449E-02 2.272756876E-03 3.426305180E-01
 -1.792939146E-01 -1.000000000E-03 -2.617565469E-02 2.343934939E-03 4.071547644E-01
 3.960175931E-02 -1.000000000E-03 -6.369649931E-02 1.982083505E-03 1.905828561E-01
 -1.874200175E-01 -1.000000000E-03 -2.345377827E-02 2.565111974E-03 4.308827802E-01
 -1.087535526E-01 -1.000000000E-03 -4.366254825E-02 2.646559110E-03 2.745423560E-01
 -7.177105146E-02 -1.000000000E-03 -5.020661076E-02 2.533817083E-03 2.393376006E-01
 -7.094708100E-02 -1.000000000E-03 -5.033992999E-02 2.502730936E-03 2.386067071E-01
 -6.102548969E-02 -1.000000000E-03 -5.187541832E-02 2.506069398E-03 2.330255754E-01
 -6.122463064E-02 -1.000000000E-03 -5.184529026E-02 2.508728712E-03 2.331043686E-01
 -6.111740504E-02 -1.000000000E-03 -5.186179234E-02 2.501142175E-03 2.330657484E-01
 -5.289404947E-02 -1.000000000E-03 -5.307528924E-02 2.111275937E-03 2.318362671E-01
 -5.013303602E-02 -1.000000000E-03 -5.346687799E-02 2.252908552E-03 2.280564260E-01
 -4.501269573E-02 -1.000000000E-03 -5.419065358E-02 2.109997989E-03 2.204911445E-01
 -5.045390914E-03 -1.000000000E-03 -5.918307237E-02 2.489165761E-03 2.058129337E-01
 5.725850578E-03 -1.000000000E-03 -6.036226649E-02 2.321727205E-03 2.019474948E-01
 -1.632981723E-02 -1.000000000E-03 -5.788340320E-02 2.436498259E-03 2.106898695E-01
 -2.618764651E-02 -1.000000000E-03 -5.666471590E-02 2.596460304E-03 2.129981371E-01
 4.105657601E-02 -1.000000000E-03 -6.382708837E-02 1.909692263E-03 1.899275419E-01
 3.726229231E-02 -1.000000000E-03 -6.347737149E-02 1.985357273E-03 1.922091389E-01
 4.600455169E-02 -1.000000000E-03 -6.425423240E-02 1.897438806E-03 1.863547663E-01
 -8.060840583E-02 -1.000000000E-03 -4.876407130E-02 2.378849815E-03 2.461528941E-01
 -8.327913006E-02 -1.000000000E-03 -4.830721228E-02 2.375588164E-03 2.486592818E-01
 2.392115432E-02 -1.000000000E-03 -6.222794492E-02 2.123343658E-03 1.979280381E-01
 -3.675312346E-02 -1.000000000E-03 -5.529603854E-02 2.444424921E-03 2.164300928E-01
 6.319355719E-02 -1.000000000E-03 -6.568743221E-02 1.248183042E-03 1.909420853E-01
 5.092513000E-02 -1.000000000E-03 -6.468115143E-02 1.792540821E-03 1.828656060E-01
 5.155205854E-02 -1.000000000E-03 -6.473266955E-02 1.806321786E-03 1.830273571E-01
 -3.216900582E-02 -1.000000000E-03 -5.591252016E-02 2.439895163E-03 2.145254656E-01
 -2.277492280E-01 -1.000000000E-03 -5.592839691E-03 1.280668793E-03 7.050197868E-01
 -2.252143189E-01 -1.000000000E-03 -7.141677802E-03 1.357596245E-03 6.765177848E-01
 -2.235216948E-01 -1.000000000E-03 -8.046024704E-03 1.525655280E-03 6.590857534E-01
 7.414128702E-01 -1.000000000E-03 -6.568877656E-02 1.487006220E-05 4.309533796E-01
 7.414759579E-01 -1.000000000E-03 -6.568521786E-02 1.230166928E-05 4.311813765E-01
 7.359388923E-01 -1.000000000E-03 -6.599095867E-02 2.876608888E-05 4.174910657E-01
 7.358130770E-01 -1.000000000E-03 -6.599791149E-02 3.323715983E-05 4.172620057E-01
 7.471459829E-01 -1.000000000E-03 -6.536680938E-02 3.053875712E-06 4.516637047E-01
 7.471460236E-01 -1.000000000E-03 -6.536680706E-02 3.710751556E-06 4.516548751E-01
 7.471361454E-01 -1.000000000E-03 -6.536448922E-02 1.415019890E-06 4.499280488E-01
 7.471361991E-01 -1.000000000E-03 -6.536450186E-02 3.697897206E-06 4.499175865E-01
 7.471165039E-01 -1.000000000E-03 -6.535988057E-02 1.400609636E-06 4.481569092E-01
 7.471163973E-01 -1.000000000E-03 -6.535985539E-02 5.807683339E-07 4.481673857E-01
 7.471329767E-01 -1.000000000E-03 -6.536754577E-02 3.131605323E-06 4.534442999E-01
 7.470599588E-01 -1.000000000E-03 -6.537167894E-02 3.161451036E-06 4.520327439E-01
 7.471331566E-01 -1.000000000E-03 -6.536753548E-02 3.097001575E-06 4.534408276E-01
 7.251933339E-01 -1.000000000E-03 -6.656961680E-02 4.925228503E-05 4.040454753E-01
 7.250048775E-01 -1.000000000E-03 -6.657962790E-02 4.804741396E-05 4.038192396E-01
 7.470573145E-01 -1.000000000E-03 -6.537183029E-02 4.457175827E-06 4.520352904E-01
 7.446085714E-01 -1.000000000E-03 -6.550999904E-02 8.873446521E-06 4.429215561E-01
 7.470294899E-01 -1.000000000E-03 -6.533946312E-02 5.069637966E-07 4.441398989E-01
 7.470302181E-01 -1.000000000E-03 -6.533963505E-02 5.504629990E-07 4.441305685E-01
 7.466136892E-01 -1.000000000E-03 -6.524190926E-02 7.528648054E-07 4.406980676E-01
 7.455065486E-01 -1.000000000E-03 -6.498229459E-02 1.047905448E-06 4.355890679E-01
 7.454933170E-01 -1.000000000E-03 -6.497917281E-02 1.522788936E-06 4.355514855E-01
 7.435589755E-01 -1.000000000E-03 -6.452607914E-02 2.725360139E-06 4.301461777E-01
 7.435336863E-01 -1.000000000E-03 -6.452014428E-02 3.490309012E-06 4.300939693E-01
 7.411113757E-01 -1.000000000E-03 -6.395368097E-02 8.554229684E-06 4.238213809E-01
 7.466189422E-01 -1.000000000E-03 -6.524314900E-02 5.594593686E-07 4.407227511E-01
 7.410156783E-01 -1.000000000E-03 -6.393122605E-02 1.129400102E-05 4.236795621E-01
 7.296214076E-01 -1.000000000E-03 -6.127997124E-02 1.060963889E-04 4.082234459E-01
 7.466788332E-01 -1.000000000E-03 -6.539324352E-02 4.453470354E-06 4.502864948E-01
 7.466668649E-01 -1.000000000E-03 -6.539392641E-02 3.912065367E-06 4.502407509E-01
 7.446316162E-01 -1.000000000E-03 -6.550869718E-02 7.166798114E-06 4.430249372E-01
 7.459972048E-01 -1.000000000E-03 -6.543176308E-02 3.963648599E-06 4.480714059E-01
 7.136179438E-01 -1.000000000E-03 -6.717160747E-02 8.660670943E-05 3.880854421E-01
 7.296214076E-01 -1.000000000E-03 -6.127997124E-02 1.060963889E-04 4.082234459E-01
 7.282087994E-01 -1.000000000E-03 -6.095357429E-02 1.325780995E-04 4.066379499E-01
 7.293001598E-01 -1.000000000E-03 -6.120536543E-02 1.112160978E-04 4.078299947E-01
 7.104263453E-01 -1.000000000E-03 -5.686156207E-02 2.491890075E-04 3.879042255E-01
 7.123166770E-01 -1.000000000E-03 -5.729358167E-02 2.110175201E-04 3.896326221E-01
 7.032283102E-01 -1.000000000E-03 -5.522709854E-02 3.569678919E-04 3.813046238E-01
 -2.462124732E-01 -1.000000000E-03 2.963292937E-02 1.933816931E-03 -1.486191821E-02
 -2.441237931E-01 -1.000000000E-03 3.233981195E-02 2.873215803E-03 -1.701340846E-01
 -2.463005253E-01 -1.000000000E-03 2.951299091E-02 1.827478926E-03 -5.267169396E-03
 -2.439172339E-01 -1.000000000E-03 3.256822475E-02 2.906023109E-03 -1.769154086E-01
 -2.440104620E-01 -1.000000000E-03 3.247161480E-02 2.844045525E-03 -1.728972330E-01
 -2.417862338E-01 -1.000000000E-03 3.464593573E-02 3.961572152E-03 -2.587780458E-01
 -2.388411705E-01 -1.000000000E-03 3.702430153E-02 3.807529728E-03 -3.391542338E-01
 -2.419966910E-01 -1.000000000E-03 3.447459150E-02 3.859738219E-03 -2.518205803E-01
 -2.420896791E-01 -1.000000000E-03 3.438990624E-02 3.841005347E-03 -2.485625911E-01
 -2.385493044E-01 -1.000000000E-03 3.723395043E-02 3.875543476E-03 -3.420285353E-01
 -2.376315556E-01 -1.000000000E-03 3.784569872E-02 4.417692063E-03 -3.514924469E-01
 -1.910082659E-01 -1.000000000E-03 -2.224272617E-02 2.447256644E-03 4.420655606E-01
 -1.901263743E-01 -1.000000000E-03 -2.255623511E-02 2.432802071E-03 4.387473466E-01
 -1.874200175E-01 -1.000000000E-03 -2.345377827E-02 2.565111974E-03 4.308827802E-01
 -1.999649725E-01 -1.000000000E-03 -1.891855808E-02 2.452610237E-03 4.814018050E-01
 -2.000619777E-01 -1.000000000E-03 -1.888104195E-02 2.447558068E-03 4.818277111E-01
 -2.004278583E-01 -1.000000000E-03 -1.872883524E-02 2.448406060E-03 4.839003454E-01
 -1.338251546E-01 -1.000000000E-03 -3.836678409E-02 2.054130549E-03 3.061469566E-01
 -1.239876879E-01 -1.000000000E-03 -4.053577265E-02 2.752679997E-03 2.914825505E-01
 -1.384040940E-01 -1.000000000E-03 -3.730050048E-02 2.250485325E-03 3.116216269E-01
 -1.544809818E-01 -1.000000000E-03 -3.331872449E-02 2.272756876E-03 3.426305180E-01
 -1.443521603E-01 -1.000000000E-03 -3.587403748E-02 2.562027575E-03 3.216241676E-01
 -1.486396296E-01 -1.000000000E-03 -3.482131525E-02 2.459220047E-03 3.267784968E-01
 2.392115432E-02 -1.000000000E-03 -6.222794492E-02 2.123343658E-03 1.979280381E-01
 5.725850578E-03 -1.000000000E-03 -6.036226649E-02 2.321727205E-03 2.019474948E-01
 2.753240297E-02 -1.000000000E-03 -6.257975941E-02 1.947135790E-03 1.972025687E-01
 3.726229231E-02 -1.000000000E-03 -6.347737149E-02 1.985357273E-03 1.922091389E-01
 7.289539591E-04 -1.000000000E-03 -5.983823803E-02 2.155456548E-03 2.037327729E-01
 -3.510055082E-06 -1.000000000E-03 -5.975640644E-02 2.178344002E-03 2.040369220E-01
 -5.045390914E-03 -1.000000000E-03 -5.918307237E-02 2.489165761E-03 2.058129337E-01
 2.594814898E-01 -1.000000000E-03 -7.479070562E-02 2.620580100E-04 1.919655574E-01
 2.593503506E-01 -1.000000000E-03 -7.478800630E-02 2.609237417E-04 1.919515603E-01
 2.720975687E-01 -1.000000000E-03 -7.503045261E-02 3.244757536E-04 1.906730475E-01
 2.719904666E-01 -1.000000000E-03 -7.502848746E-02 3.239902989E-04 1.906594871E-01
 7.656460708E-02 -1.000000000E-03 -6.670311122E-02 9.809530615E-04 1.914580577E-01
 7.729793704E-02 -1.000000000E-03 -6.675945173E-02 9.308475655E-04 1.915836173E-01
 7.782089707E-02 -1.000000000E-03 -6.679713599E-02 9.942056618E-04 1.911314038E-01
 7.283221372E-02 -1.000000000E-03 -6.641729011E-02 1.323951745E-03 1.905695191E-01
 9.391348371E-02 -1.000000000E-03 -6.791718431E-02 1.028934103E-03 1.880833167E-01
 9.473864168E-02 -1.000000000E-03 -6.797309251E-02 9.952225871E-04 1.882741948E-01
 2.838185634E-01 -1.000000000E-03 -7.522321998E-02 2.093208272E-04 1.918144997E-01
 1.258359053E-01 -1.000000000E-03 -6.986411810E-02 4.176655985E-04 1.861225683E-01
 1.254861282E-01 -1.000000000E-03 -6.984472863E-02 4.201631110E-04 1.862181286E-01
 1.455635328E-01 -1.000000000E-03 -7.090012965E-02 4.333686166E-04 1.814426328E-01
 1.459371743E-01 -1.000000000E-03 -7.091925272E-02 4.138415810E-04 1.814118883E-01
 1.874544610E-01 -1.000000000E-03 -7.272217354E-02 8.685240112E-05 1.840784895E-01
 1.876234419E-01 -1.000000000E-03 -7.272851636E-02 8.023710241E-05 1.840595774E-01
 1.990506350E-01 -1.000000000E-03 -7.314142163E-02 1.284677078E-04 1.835102816E-01
 1.991442692E-01 -1.000000000E-03 -7.314468202E-02 1.211454652E-04 1.835242649E-01
 2.496027018E-01 -1.000000000E-03 -7.457900038E-02 8.002558913E-05 1.902745805E-01
 2.406353514E-01 -1.000000000E-03 -7.436782998E-02 1.745570804E-04 1.826328855E-01
 1.552265819E-01 -1.000000000E-03 -7.136534423E-02 5.300276906E-05 1.852229595E-01
 1.640092568E-01 -1.000000000E-03 -7.176404327E-02 1.033996154E-04 1.894441154E-01
 1.550115093E-01 -1.000000000E-03 -7.135515504E-02 7.582381997E-05 1.851069828E-01
 1.787477077E-01 -1.000000000E-03 -7.238399443E-02 2.378635453E-04 1.894565057E-01
 1.131054332E-01 -1.000000000E-03 -6.912857051E-02 9.252016465E-04 1.882892397E-01
 1.135869009E-01 -1.000000000E-03 -6.915849105E-02 8.860623280E-04 1.884198890E-01
 1.138933516E-01 -1.000000000E-03 -6.917677088E-02 9.028689640E-04 1.883818858E-01
 6.319355719E-02 -1.000000000E-03 -6.568743221E-02 1.248183042E-03 1.909420853E-01
 2.839261517E-01 -1.000000000E-03 -7.522502607E-02 1.982372799E-04 1.918193831E-01
 2.405040415E-01 -1.000000000E-03 -7.436479812E-02 1.697670333E-04 1.825718724E-01
 2.312155335E-01 -1.000000000E-03 -7.412648623E-02 1.648781118E-04 1.783794442E-01
 1.785701108E-01 -1.000000000E-03 -7.237672956E-02 2.354913591E-04 1.894715887E-01
 2.121883540E-01 -1.000000000E-03 -7.357455311E-02 1.525933844E-04 1.889211254E-01
 2.122874820E-01 -1.000000000E-03 -7.357776267E-02 1.426954866E-04 1.889390078E-01
 2.122565722E-01 -1.000000000E-03 -7.357680183E-02 1.384147469E-04 1.889402604E-01
 2.213261960E-01 -1.000000000E-03 -7.385061681E-02 1.605464893E-04 1.849495395E-01
 2.213892531E-01 -1.000000000E-03 -7.385243472E-02 1.622979800E-04 1.849568577E-01
 2.311280678E-01 -1.000000000E-03 -7.412423334E-02 1.596638612E-04 1.783557393E-01
 1.640977525E-01 -1.000000000E-03 -7.176794189E-02 1.154729064E-04 1.894506875E-01
 3.647856963E-01 -1.000000000E-03 -7.584493380E-02 1.188994605E-04 2.137322164E-01
 3.649643981E-01 -1.000000000E-03 -7.584517054E-02 1.133798007E-04 2.137944147E-01
 6.687054717E-01 -1.000000000E-03 -6.930231919E-02 3.248660346E-05 3.440385675E-01
 6.689109012E-01 -1.000000000E-03 -6.929329725E-02 2.744345036E-05 3.441903279E-01
 7.134612254E-01 -1.000000000E-03 -6.717957807E-02 8.868226232E-05 3.878855144E-01
 6.976556603E-01 -1.000000000E-03 -6.796582473E-02 1.289741640E-04 3.720732958E-01
 6.975431890E-01 -1.000000000E-03 -6.797131146E-02 1.297054029E-04 3.719560175E-01
 6.801963429E-01 -1.000000000E-03 -6.878758120E-02 1.196510240E-04 3.560455547E-01
 5.377858109E-01 -1.000000000E-03 -7.375868694E-02 2.332202352E-04 2.724062810E-01
 5.243192748E-01 -1.000000000E-03 -7.407518875E-02 2.099304194E-04 2.656853800E-01
 5.379676834E-01 -1.000000000E-03 -7.375423382E-02 2.309515965E-04 2.725013784E-01
 5.241697816E-01 -1.000000000E-03 -7.407859754E-02 2.037915969E-04 2.656026384E-01
 6.532112556E-01 -1.000000000E-03 -6.996375552E-02 3.858449015E-05 3.358171751E-01
 6.533337649E-01 -1.000000000E-03 -6.995867346E-02 4.245115859E-05 3.358844573E-01
 6.424811222E-01 -1.000000000E-03 -7.040012462E-02 1.033178853E-04 3.301341618E-01
 2.839261517E-01 -1.000000000E-03 -7.522502607E-02 1.982372799E-04 1.918193831E-01
 2.840486030E-01 -1.000000000E-03 -7.522672715E-02 2.164454672E-04 1.918485093E-01
 3.006383152E-01 -1.000000000E-03 -7.545164388E-02 1.809997704E-04 1.982984741E-01
 3.004704854E-01 -1.000000000E-03 -7.544988041E-02 1.706201358E-04 1.982562833E-01
 3.003462117E-01 -1.000000000E-03 -7.544820211E-02 1.900905792E-04 1.982083733E-01
 3.144216119E-01 -1.000000000E-03 -7.559821064E-02 4.596323002E-05 2.004627588E-01
 3.246850152E-01 -1.000000000E-03 -7.568456886E-02 1.786951009E-04 2.023312819E-01
 3.392626126E-01 -1.000000000E-03 -7.577440170E-02 2.449486007E-04 2.073005445E-01
 4.926106436E-01 -1.000000000E-03 -7.471823583E-02 2.511191668E-04 2.573115111E-01
 4.771457426E-01 -1.000000000E-03 -7.497991138E-02 3.132324499E-05 2.492648017E-01
 4.927508479E-01 -1.000000000E-03 -7.471571834E-02 2.526908914E-04 2.573778289E-01
 5.072309876E-01 -1.000000000E-03 -7.443956913E-02 1.688684648E-04 2.608837160E-01
 6.031504079E-01 -1.000000000E-03 -7.185085927E-02 7.422940050E-05 3.033648286E-01
 6.032408344E-01 -1.000000000E-03 -7.184792505E-02 6.926051231E-05 3.034038582E-01
 6.032957012E-01 -1.000000000E-03 -7.184606138E-02 6.925521289E-05 3.034334721E-01
 5.865405567E-01 -1.000000000E-03 -7.239469282E-02 1.080248211E-04 2.938087151E-01
 5.864124912E-01 -1.000000000E-03 -7.239860529E-02 1.083803064E-04 2.937547384E-01
 3.142716355E-01 -1.000000000E-03 -7.559697696E-02 4.331971892E-05 2.004148313E-01
 3.394454023E-01 -1.000000000E-03 -7.577550951E-02 2.452401593E-04 2.073468939E-01
 3.543226217E-01 -1.000000000E-03 -7.582899646E-02 1.351304028E-04 2.087743158E-01
 6.800269533E-01 -1.000000000E-03 -6.879546896E-02 1.185592011E-04 3.558771640E-01
 5.073785537E-01 -1.000000000E-03 -7.443656943E-02 1.686267732E-04 2.609267170E-01
 7.136179438E-01 -1.000000000E-03 -6.717160747E-02 8.660670943E-05 3.880854421E-01
 4.769096636E-01 -1.000000000E-03 -7.498343786E-02 3.814950350E-05 2.491757568E-01
 4.649518881E-01 -1.000000000E-03 -7.516217454E-02 1.548537481E-04 2.431807607E-01
 4.438594477E-01 -1.000000000E-03 -7.542701802E-02 9.626271932E-05 2.384076863E-01
 6.423363039E-01 -1.000000000E-03 -7.040587674E-02 1.068162696E-04 3.300532752E-01
 5.667973210E-01 -1.000000000E-03 -7.298847784E-02 1.320585045E-04 2.880738558E-01
 4.435420273E-01 -1.000000000E-03 -7.543070385E-02 1.012207087E-04 2.383183249E-01
 4.436985206E-01 -1.000000000E-03 -7.542902177E-02 9.586490921E-05 2.383712082E-01
 3.544932891E-01 -1.000000000E-03 -7.582963251E-02 1.333013106E-04 2.087886121E-01
 4.219319688E-01 -1.000000000E-03 -7.563485686E-02 1.650518373E-04 2.298195108E-01
 3.762279878E-01 -1.000000000E-03 -7.584235117E-02 1.715122504E-04 2.223258172E-01
 5.667037798E-01 -1.000000000E-03 -7.299116210E-02 1.311587772E-04 2.880309110E-01
 5.545274745E-01 -1.000000000E-03 -7.332905086E-02 1.625406497E-04 2.828755212E-01
 6.230782633E-01 -1.000000000E-03 -7.114475032E-02 7.206216415E-05 3.178438000E-01
 4.216046005E-01 -1.000000000E-03 -7.563747695E-02 1.651283777E-04 2.296715795E-01
 4.217800811E-01 -1.000000000E-03 -7.563616731E-02 1.566120052E-04 2.297460102E-01
 6.229472350E-01 -1.000000000E-03 -7.114969436E-02 6.352006450E-05 3.177385965E-01
 6.228789191E-01 -1.000000000E-03 -7.115214948E-02 6.329676402E-05 3.176980299E-01
 4.034484339E-01 -1.000000000E-03 -7.575591425E-02 1.992611984E-04 2.260542189E-01
 5.543798629E-01 -1.000000000E-03 -7.333292033E-02 1.704032813E-04 2.828241841E-01
 3.763539063E-01 -1.000000000E-03 -7.584226253E-02 1.762437961E-04 2.223878570E-01
 3.871123948E-01 -1.000000000E-03 -7.582107788E-02 2.666676627E-04 2.264373124E-01
 4.032436395E-01 -1.000000000E-03 -7.575697162E-02 2.009482568E-04 2.260230891E-01
 3.873082687E-01 -1.000000000E-03 -7.582052146E-02 2.699662073E-04 2.264432241E-01
 5 6
 6 7
 7 13
 13 2
 2 3
 3 4
 4 1
 1 18
 18 19
 19 15
 15 14
 14 11
 11 9
 9 10
 10 12
 12 17
 17 16
 5 8
 20 21
 21 22
 22 24
 24 23
 23 26
 26 25
 25 27
 28 30
 30 31
 31 48
 48 42
 42 41
 41 44
 44 45
 45 43
 43 46
 46 47
 47 57
 57 36
 36 37
 37 53
 53 52
 52 54
 54 50
 50 51
 51 49
 49 32
 32 34
 34 35
 35 33
 33 38
 38 39
 39 61
 61 40
 40 59
 59 58
 58 60
 28 29
 29 55
 55 56
 56 65
 65 64
 64 62
 62 63
 71 69
 69 70
 70 72
 72 73
 73 94
 94 95
 95 108
 108 109
 109 96
 96 97
 97 98
 98 110
 110 113
 113 90
 90 91
 91 89
 89 92
 92 105
 105 93
 93 112
 112 111
 111 115
 115 106
 106 107
 75 71
 87 104
 104 103
 103 101
 101 100
 100 99
 99 102
 102 77
 77 78
 78 76
 76 75
 79 80
 80 84
 84 83
 83 66
 66 85
 85 86
 86 88
 88 87
 81 79
 74 114
 82 81
 82 67
 67 68
 118 116
 116 117
 118 119
 130 120
 120 131
 131 136
 136 121
 121 123
 123 122
 122 153
 153 152
 152 137
 137 138
 138 140
 140 141
 141 139
 139 142
 142 143
 143 144
 144 155
 155 159
 159 148
 148 147
 147 145
 125 132
 135 133
 133 127
 127 128
 128 129
 129 126
 126 124
 124 125
 146 154
 149 134
 134 150
 151 149
 158 156
 158 157
 157 151
 161 160
 162 161
 163 165
 165 166
 166 176
 176 177
 177 195
 175 173
 173 174
 174 178
 178 191
 191 192
 192 194
 194 193
 193 179
 179 164
 164 163
 183 182
 182 188
 188 180
 180 181
 181 172
 172 171
 171 169
 169 170
 170 168
 168 167
 167 175
 185 184
 184 183
 190 189
 189 187
 187 186
 186 185
 201 199
 199 200
 200 197
 197 198
 198 196
 202 203
 203 206
 206 205
 209 210
 211 212
 208 207
 207 209
 204 202
 208 211
 216 213
 213 214