TITLE     = "Surface mesh and solution"
VARIABLES = "x"
"y"
"z"
"cfx"
"Cp"
DATASETAUXDATA alpha_deg="  0.0000000E+00"
DATASETAUXDATA beta_deg="  0.0000000E+00"
DATASETAUXDATA bref="  0.7500000"
DATASETAUXDATA cref="   1.000000"
DATASETAUXDATA itranflg="           0"
DATASETAUXDATA ivisc="           2"
DATASETAUXDATA mach="  0.2000000"
DATASETAUXDATA reue_mil="   4.600000"
DATASETAUXDATA sref="  0.7500000"
DATASETAUXDATA tinf_r="   521.0000"
DATASETAUXDATA xmc="  0.0000000E+00"
DATASETAUXDATA ymc="  0.0000000E+00"
DATASETAUXDATA zmc="  0.0000000E+00"
ZONE T="Slice: Y=-0.035"
STRANDID=0, SOLUTIONTIME=0
Nodes=2556, Elements=2556, ZONETYPE=FELineSeg
DATAPACKING=POINT
DT=(DOUBLE DOUBLE DOUBLE DOUBLE DOUBLE )
-0.249049 -0.035000 0.021789 0.000443	0.599778
-0.249049 -0.035000 0.021788 0.000443	0.599821
-0.249049 -0.035000 0.021784 0.000441	0.600208
-0.249079 -0.035000 0.021373 0.000296	0.637374
-0.249087 -0.035000 0.021232 0.000244	0.650143
-0.249094 -0.035000 0.021085 0.000192	0.664151
-0.249100 -0.035000 0.020896 0.000134	0.679850
-0.249103 -0.035000 0.020808 0.000106	0.687610
-0.249104 -0.035000 0.020769 0.000096	0.689645
-0.249107 -0.035000 0.020523 0.000024	0.703625
-0.249107 -0.035000 0.020484 0.000012	0.706295
-0.249107 -0.035000 0.020429 -0.000007	0.708966
-0.249106 -0.035000 0.020209 -0.000066	0.725866
-0.249099 -0.035000 0.019943 -0.000118	0.748867
-0.249094 -0.035000 0.019781 -0.000156	0.764546
-0.249076 -0.035000 0.019447 -0.000249	0.786678
-0.249072 -0.035000 0.019377 -0.000261	0.789134
-0.249058 -0.035000 0.019193 -0.000307	0.801269
-0.249043 -0.035000 0.019007 -0.000349	0.813049
-0.249040 -0.035000 0.018973 -0.000353	0.814453
-0.249004 -0.035000 0.018626 -0.000404	0.841593
-0.248997 -0.035000 0.018559 -0.000421	0.846214
-0.248952 -0.035000 0.018214 -0.000459	0.864714
-0.248935 -0.035000 0.018090 -0.000465	0.872511
-0.248882 -0.035000 0.017755 -0.000493	0.884026
-0.248875 -0.035000 0.017710 -0.000497	0.885991
-0.248851 -0.035000 0.017581 -0.000507	0.891227
-0.248807 -0.035000 0.017340 -0.000522	0.901944
-0.248789 -0.035000 0.017252 -0.000531	0.906435
-0.248710 -0.035000 0.016876 -0.000524	0.927632
-0.248707 -0.035000 0.016865 -0.000524	0.928420
-0.248705 -0.035000 0.016853 -0.000526	0.929153
-0.248628 -0.035000 0.016526 -0.000552	0.946716
-0.248547 -0.035000 0.016215 -0.000527	0.955867
-0.248525 -0.035000 0.016130 -0.000510	0.956429
-0.248504 -0.035000 0.016055 -0.000504	0.959382
-0.248369 -0.035000 0.015589 -0.000462	0.971645
-0.248365 -0.035000 0.015575 -0.000461	0.972033
-0.248364 -0.035000 0.015572 -0.000460	0.972120
-0.248221 -0.035000 0.015127 -0.000439	0.981741
-0.248167 -0.035000 0.014966 -0.000422	0.984586
-0.248055 -0.035000 0.014653 -0.000380	0.991949
-0.247996 -0.035000 0.014490 -0.000358	0.995452
-0.247817 -0.035000 0.014030 -0.000308	1.001852
-0.247795 -0.035000 0.013975 -0.000300	1.002464
-0.247747 -0.035000 0.013863 -0.000277	1.003113
-0.247580 -0.035000 0.013465 -0.000200	1.006464
-0.247489 -0.035000 0.013263 -0.000166	1.007630
-0.247386 -0.035000 0.013036 -0.000131	1.010382
-0.247234 -0.035000 0.012715 -0.000080	1.011932
-0.247214 -0.035000 0.012673 -0.000074	1.012071
-0.247184 -0.035000 0.012614 -0.000061	1.012792
-0.247068 -0.035000 0.012379 -0.000012	1.015944
-0.247050 -0.035000 0.012343 -0.000005	1.015267
-0.247007 -0.035000 0.012261 0.000010	1.013902
-0.246953 -0.035000 0.012154 0.000030	1.012405
-0.246869 -0.035000 0.011995 0.000071	1.013054
-0.246826 -0.035000 0.011915 0.000091	1.013558
-0.246805 -0.035000 0.011875 0.000103	1.013410
-0.246611 -0.035000 0.011520 0.000158	1.012282
-0.246553 -0.035000 0.011418 0.000182	1.011447
-0.246391 -0.035000 0.011136 0.000244	1.011300
-0.246252 -0.035000 0.010901 0.000279	1.007602
-0.246165 -0.035000 0.010755 0.000315	1.004602
-0.246000 -0.035000 0.010487 0.000402	1.001052
-0.245927 -0.035000 0.010372 0.000438	0.999876
-0.245782 -0.035000 0.010145 0.000501	0.997985
-0.245607 -0.035000 0.009877 0.000523	0.992488
-0.245542 -0.035000 0.009779 0.000535	0.990290
-0.245419 -0.035000 0.009599 0.000595	0.988746
-0.245281 -0.035000 0.009395 0.000659	0.986858
-0.245143 -0.035000 0.009200 0.000692	0.983175
-0.245033 -0.035000 0.009043 0.000712	0.980019
-0.244997 -0.035000 0.008994 0.000721	0.978902
-0.244722 -0.035000 0.008618 0.000777	0.973701
-0.244691 -0.035000 0.008577 0.000782	0.973046
-0.244471 -0.035000 0.008284 0.000820	0.965810
-0.244387 -0.035000 0.008174 0.000838	0.964169
-0.244241 -0.035000 0.007985 0.000892	0.959863
-0.244070 -0.035000 0.007769 0.000923	0.955373
-0.244037 -0.035000 0.007727 0.000926	0.954572
-0.244015 -0.035000 0.007700 0.000929	0.954158
-0.243812 -0.035000 0.007448 0.000985	0.949926
-0.243744 -0.035000 0.007366 0.000997	0.948054
-0.243598 -0.035000 0.007188 0.001012	0.943566
-0.243390 -0.035000 0.006941 0.001075	0.936676
-0.243339 -0.035000 0.006880 0.001084	0.935257
-0.243173 -0.035000 0.006688 0.001119	0.931012
-0.243033 -0.035000 0.006525 0.001143	0.927818
-0.243001 -0.035000 0.006489 0.001149	0.926926
-0.242736 -0.035000 0.006190 0.001162	0.920030
-0.242637 -0.035000 0.006078 0.001167	0.917355
-0.242360 -0.035000 0.005774 0.001217	0.910487
-0.242327 -0.035000 0.005738 0.001224	0.909739
-0.242303 -0.035000 0.005713 0.001228	0.909248
-0.242032 -0.035000 0.005421 0.001284	0.904104
-0.241917 -0.035000 0.005299 0.001316	0.901728
-0.241720 -0.035000 0.005093 0.001336	0.897018
-0.241583 -0.035000 0.004950 0.001357	0.893788
-0.241452 -0.035000 0.004817 0.001359	0.889803
-0.241289 -0.035000 0.004650 0.001365	0.884780
-0.240968 -0.035000 0.004330 0.001426	0.877126
-0.240943 -0.035000 0.004305 0.001431	0.876576
-0.240913 -0.035000 0.004276 0.001434	0.876010
-0.240626 -0.035000 0.003994 0.001454	0.869728
-0.240435 -0.035000 0.003810 0.001500	0.865033
-0.240386 -0.035000 0.003763 0.001503	0.863646
-0.240341 -0.035000 0.003721 0.001516	0.862560
-0.240159 -0.035000 0.003546 0.001543	0.857718
-0.239963 -0.035000 0.003362 0.001572	0.852413
-0.239962 -0.035000 0.003362 0.001572	0.852387
-0.239698 -0.035000 0.003117 0.001566	0.845719
-0.239628 -0.035000 0.003053 0.001570	0.843995
-0.239470 -0.035000 0.002910 0.001568	0.840981
-0.239329 -0.035000 0.002781 0.001566	0.838080
-0.239273 -0.035000 0.002731 0.001580	0.836555
-0.239032 -0.035000 0.002515 0.001623	0.829552
-0.238882 -0.035000 0.002383 0.001625	0.826428
-0.238713 -0.035000 0.002234 0.001641	0.823283
-0.238499 -0.035000 0.002048 0.001627	0.819852
-0.238468 -0.035000 0.002021 0.001628	0.819272
-0.238179 -0.035000 0.001773 0.001649	0.812838
-0.237909 -0.035000 0.001544 0.001669	0.806753
-0.237853 -0.035000 0.001496 0.001669	0.805381
-0.237754 -0.035000 0.001414 0.001674	0.803369
-0.237518 -0.035000 0.001216 0.001682	0.798847
-0.237343 -0.035000 0.001073 0.001695	0.795475
-0.237125 -0.035000 0.000894 0.001713	0.791460
-0.236988 -0.035000 0.000783 0.001721	0.789283
-0.236768 -0.035000 0.000605 0.001734	0.785453
-0.236682 -0.035000 0.000536 0.001746	0.783760
-0.236421 -0.035000 0.000328 0.001760	0.779131
-0.236194 -0.035000 0.000148 0.001799	0.774876
-0.236108 -0.035000 0.000081 0.001815	0.773075
-0.235904 -0.035000 -0.000078 0.001825	0.768687
-0.235760 -0.035000 -0.000190 0.001831	0.765677
-0.235730 -0.035000 -0.000213 0.001833	0.765018
-0.235320 -0.035000 -0.000527 0.001846	0.758101
-0.235303 -0.035000 -0.000540 0.001847	0.757755
-0.234876 -0.035000 -0.000862 0.001873	0.749755
-0.234863 -0.035000 -0.000872 0.001874	0.749534
-0.234544 -0.035000 -0.001109 0.001865	0.743602
-0.234431 -0.035000 -0.001192 0.001865	0.741414
-0.234218 -0.035000 -0.001349 0.001858	0.736950
-0.234018 -0.035000 -0.001494 0.001876	0.733348
-0.233842 -0.035000 -0.001622 0.001898	0.730854
-0.233487 -0.035000 -0.001877 0.001878	0.725887
-0.233449 -0.035000 -0.001904 0.001878	0.725315
-0.233410 -0.035000 -0.001932 0.001882	0.724645
-0.233080 -0.035000 -0.002166 0.001905	0.719565
-0.232835 -0.035000 -0.002337 0.001937	0.715950
-0.232677 -0.035000 -0.002448 0.001940	0.713849
-0.232574 -0.035000 -0.002519 0.001947	0.712341
-0.232242 -0.035000 -0.002748 0.001991	0.706789
-0.232188 -0.035000 -0.002786 0.001993	0.705958
-0.231868 -0.035000 -0.003003 0.001986	0.700648
-0.231777 -0.035000 -0.003065 0.001982	0.699203
-0.231763 -0.035000 -0.003075 0.001984	0.698951
-0.231317 -0.035000 -0.003374 0.001985	0.692112
-0.231288 -0.035000 -0.003393 0.001983	0.691716
-0.230858 -0.035000 -0.003678 0.001968	0.685821
-0.230774 -0.035000 -0.003733 0.001969	0.684709
-0.230426 -0.035000 -0.003961 0.001965	0.680255
-0.230292 -0.035000 -0.004048 0.001961	0.678671
-0.229916 -0.035000 -0.004290 0.001968	0.673689
-0.229839 -0.035000 -0.004340 0.001972	0.672680
-0.229656 -0.035000 -0.004456 0.001975	0.670340
-0.229379 -0.035000 -0.004633 0.001990	0.667186
-0.229138 -0.035000 -0.004784 0.002025	0.664887
-0.228887 -0.035000 -0.004943 0.002066	0.662341
-0.228462 -0.035000 -0.005207 0.002076	0.657714
-0.228413 -0.035000 -0.005237 0.002078	0.657162
-0.228388 -0.035000 -0.005253 0.002078	0.656813
-0.227958 -0.035000 -0.005517 0.002048	0.649039
-0.227728 -0.035000 -0.005657 0.002052	0.646861
-0.227485 -0.035000 -0.005804 0.002059	0.644506
-0.227251 -0.035000 -0.005945 0.002069	0.642207
-0.227026 -0.035000 -0.006080 0.002085	0.640145
-0.226837 -0.035000 -0.006193 0.002095	0.637995
-0.226527 -0.035000 -0.006377 0.002105	0.634114
-0.226357 -0.035000 -0.006477 0.002109	0.631765
-0.226098 -0.035000 -0.006629 0.002116	0.628593
-0.225766 -0.035000 -0.006823 0.002127	0.624902
-0.225661 -0.035000 -0.006884 0.002130	0.623821
-0.225437 -0.035000 -0.007014 0.002119	0.621544
-0.225279 -0.035000 -0.007105 0.002112	0.619944
-0.225242 -0.035000 -0.007126 0.002115	0.619568
-0.225130 -0.035000 -0.007190 0.002123	0.618122
-0.224907 -0.035000 -0.007318 0.002139	0.615491
-0.224781 -0.035000 -0.007390 0.002146	0.614231
-0.224475 -0.035000 -0.007563 0.002157	0.611201
-0.224247 -0.035000 -0.007692 0.002174	0.608397
-0.224044 -0.035000 -0.007806 0.002182	0.606081
-0.223742 -0.035000 -0.007974 0.002191	0.603266
-0.223676 -0.035000 -0.008011 0.002194	0.602760
-0.223637 -0.035000 -0.008033 0.002193	0.602393
-0.223166 -0.035000 -0.008293 0.002184	0.597024
-0.223097 -0.035000 -0.008331 0.002184	0.596200
-0.222576 -0.035000 -0.008615 0.002184	0.591092
-0.222411 -0.035000 -0.008704 0.002190	0.589697
-0.222030 -0.035000 -0.008910 0.002202	0.586814
-0.221885 -0.035000 -0.008988 0.002202	0.585716
-0.221727 -0.035000 -0.009072 0.002196	0.583981
-0.221403 -0.035000 -0.009245 0.002195	0.580351
-0.221293 -0.035000 -0.009303 0.002206	0.579455
-0.220962 -0.035000 -0.009478 0.002235	0.576712
-0.220846 -0.035000 -0.009540 0.002244	0.575788
-0.220307 -0.035000 -0.009822 0.002251	0.572515
-0.220296 -0.035000 -0.009828 0.002252	0.572446
-0.219793 -0.035000 -0.010088 0.002241	0.568129
-0.219789 -0.035000 -0.010090 0.002241	0.568095
-0.219767 -0.035000 -0.010101 0.002243	0.567873
-0.219260 -0.035000 -0.010362 0.002289	0.562622
-0.219154 -0.035000 -0.010416 0.002287	0.561703
-0.218728 -0.035000 -0.010632 0.002280	0.558077
-0.218508 -0.035000 -0.010743 0.002294	0.556126
-0.218166 -0.035000 -0.010915 0.002317	0.553171
-0.217988 -0.035000 -0.011005 0.002328	0.551956
-0.217824 -0.035000 -0.011086 0.002322	0.550652
-0.217438 -0.035000 -0.011279 0.002329	0.549167
-0.217370 -0.035000 -0.011312 0.002332	0.548818
-0.216970 -0.035000 -0.011510 0.002335	0.546047
-0.216604 -0.035000 -0.011689 0.002355	0.543046
-0.216529 -0.035000 -0.011726 0.002356	0.542637
-0.216456 -0.035000 -0.011761 0.002358	0.542023
-0.215979 -0.035000 -0.011993 0.002372	0.538215
-0.215800 -0.035000 -0.012079 0.002382	0.536682
-0.215408 -0.035000 -0.012268 0.002386	0.533895
-0.215145 -0.035000 -0.012394 0.002388	0.531858
-0.214735 -0.035000 -0.012590 0.002411	0.528017
-0.214351 -0.035000 -0.012771 0.002417	0.525238
-0.214088 -0.035000 -0.012894 0.002436	0.523357
-0.213628 -0.035000 -0.013109 0.002421	0.520294
-0.213406 -0.035000 -0.013212 0.002399	0.519016
-0.212879 -0.035000 -0.013456 0.002399	0.516143
-0.212852 -0.035000 -0.013468 0.002400	0.515984
-0.212845 -0.035000 -0.013471 0.002400	0.515943
-0.212803 -0.035000 -0.013490 0.002398	0.515713
-0.212254 -0.035000 -0.013743 0.002380	0.512747
-0.212104 -0.035000 -0.013811 0.002390	0.511776
-0.211720 -0.035000 -0.013986 0.002430	0.509582
-0.211346 -0.035000 -0.014155 0.002451	0.507393
-0.211109 -0.035000 -0.014262 0.002473	0.505735
-0.210877 -0.035000 -0.014366 0.002512	0.504261
-0.210602 -0.035000 -0.014489 0.002547	0.502186
-0.210353 -0.035000 -0.014600 0.002521	0.499745
-0.209939 -0.035000 -0.014783 0.002534	0.497007
-0.209902 -0.035000 -0.014799 0.002534	0.496710
-0.209794 -0.035000 -0.014847 0.002524	0.496029
-0.209382 -0.035000 -0.015028 0.002484	0.493430
-0.209289 -0.035000 -0.015068 0.002483	0.492921
-0.208748 -0.035000 -0.015304 0.002520	0.489394
-0.208686 -0.035000 -0.015331 0.002523	0.488986
-0.208668 -0.035000 -0.015339 0.002523	0.488903
-0.208135 -0.035000 -0.015570 0.002486	0.485951
-0.207768 -0.035000 -0.015728 0.002508	0.484157
-0.207539 -0.035000 -0.015826 0.002525	0.483127
-0.207291 -0.035000 -0.015932 0.002534	0.481773
-0.206957 -0.035000 -0.016075 0.002550	0.480081
-0.206599 -0.035000 -0.016226 0.002565	0.478259
-0.206363 -0.035000 -0.016326 0.002583	0.477160
-0.206235 -0.035000 -0.016380 0.002587	0.476440
-0.205841 -0.035000 -0.016546 0.002597	0.474169
-0.205444 -0.035000 -0.016711 0.002587	0.471442
-0.205162 -0.035000 -0.016828 0.002587	0.469667
-0.204680 -0.035000 -0.017027 0.002593	0.468038
-0.204581 -0.035000 -0.017068 0.002592	0.467642
-0.204052 -0.035000 -0.017285 0.002591	0.465708
-0.203671 -0.035000 -0.017440 0.002597	0.464211
-0.203283 -0.035000 -0.017599 0.002597	0.462470
-0.202659 -0.035000 -0.017851 0.002609	0.459571
-0.202499 -0.035000 -0.017915 0.002615	0.458801
-0.202353 -0.035000 -0.017974 0.002617	0.458146
-0.201675 -0.035000 -0.018245 0.002631	0.455004
-0.201483 -0.035000 -0.018321 0.002631	0.453945
-0.201135 -0.035000 -0.018459 0.002635	0.452058
-0.200837 -0.035000 -0.018577 0.002642	0.450568
-0.200659 -0.035000 -0.018647 0.002648	0.449641
-0.200210 -0.035000 -0.018823 0.002674	0.447391
-0.199796 -0.035000 -0.018985 0.002687	0.445006
-0.199533 -0.035000 -0.019087 0.002696	0.443838
-0.199009 -0.035000 -0.019290 0.002719	0.441412
-0.198870 -0.035000 -0.019343 0.002720	0.440759
-0.198189 -0.035000 -0.019605 0.002693	0.438020
-0.198022 -0.035000 -0.019669 0.002691	0.437313
-0.197516 -0.035000 -0.019861 0.002685	0.435549
-0.197114 -0.035000 -0.020013 0.002677	0.433746
-0.196754 -0.035000 -0.020149 0.002683	0.432443
-0.196263 -0.035000 -0.020333 0.002711	0.430579
-0.195732 -0.035000 -0.020532 0.002732	0.428110
-0.195456 -0.035000 -0.020635 0.002752	0.426950
-0.194652 -0.035000 -0.020932 0.002763	0.423313
-0.194635 -0.035000 -0.020938 0.002762	0.423240
-0.194616 -0.035000 -0.020945 0.002763	0.423158
-0.194056 -0.035000 -0.021150 0.002766	0.421070
-0.193552 -0.035000 -0.021335 0.002767	0.418500
-0.193467 -0.035000 -0.021365 0.002765	0.418111
-0.193429 -0.035000 -0.021379 0.002765	0.417951
-0.193275 -0.035000 -0.021435 0.002764	0.417298
-0.192661 -0.035000 -0.021657 0.002760	0.414772
-0.192345 -0.035000 -0.021770 0.002751	0.413696
-0.191902 -0.035000 -0.021929 0.002744	0.412183
-0.191762 -0.035000 -0.021979 0.002741	0.411667
-0.191571 -0.035000 -0.022047 0.002741	0.411181
-0.191154 -0.035000 -0.022195 0.002743	0.410222
-0.190623 -0.035000 -0.022383 0.002748	0.408722
-0.190493 -0.035000 -0.022429 0.002748	0.408319
-0.190429 -0.035000 -0.022452 0.002749	0.408115
-0.190325 -0.035000 -0.022488 0.002760	0.407732
-0.189806 -0.035000 -0.022671 0.002794	0.405748
-0.189560 -0.035000 -0.022757 0.002783	0.404886
-0.189026 -0.035000 -0.022943 0.002776	0.403173
-0.188843 -0.035000 -0.023006 0.002779	0.402718
-0.188198 -0.035000 -0.023229 0.002778	0.400620
-0.187940 -0.035000 -0.023318 0.002780	0.399905
-0.187316 -0.035000 -0.023532 0.002772	0.398176
-0.187212 -0.035000 -0.023568 0.002772	0.397863
-0.187027 -0.035000 -0.023631 0.002780	0.397424
-0.186580 -0.035000 -0.023783 0.002804	0.396352
-0.186446 -0.035000 -0.023829 0.002803	0.396058
-0.185838 -0.035000 -0.024035 0.002816	0.393954
-0.185829 -0.035000 -0.024038 0.002816	0.393923
-0.185788 -0.035000 -0.024052 0.002816	0.393738
-0.185200 -0.035000 -0.024250 0.002813	0.391098
-0.185001 -0.035000 -0.024317 0.002816	0.390340
-0.184623 -0.035000 -0.024444 0.002829	0.388883
-0.184107 -0.035000 -0.024615 0.002843	0.387154
-0.183867 -0.035000 -0.024695 0.002851	0.386425
-0.183410 -0.035000 -0.024846 0.002865	0.384543
-0.183164 -0.035000 -0.024927 0.002874	0.383512
-0.183041 -0.035000 -0.024967 0.002882	0.382975
-0.182321 -0.035000 -0.025203 0.002886	0.380195
-0.182128 -0.035000 -0.025266 0.002882	0.379486
-0.181396 -0.035000 -0.025503 0.002885	0.376663
-0.181383 -0.035000 -0.025508 0.002884	0.376628
-0.181214 -0.035000 -0.025562 0.002883	0.376257
-0.180684 -0.035000 -0.025732 0.002878	0.375162
-0.180654 -0.035000 -0.025742 0.002878	0.375072
-0.179925 -0.035000 -0.025974 0.002832	0.373303
-0.179726 -0.035000 -0.026038 0.002824	0.372604
-0.179311 -0.035000 -0.026169 0.002821	0.371286
-0.178785 -0.035000 -0.026335 0.002805	0.369922
-0.178620 -0.035000 -0.026388 0.002800	0.369447
-0.178429 -0.035000 -0.026448 0.002806	0.369263
-0.177930 -0.035000 -0.026605 0.002820	0.368729
-0.177362 -0.035000 -0.026783 0.002825	0.367924
-0.177248 -0.035000 -0.026818 0.002826	0.367914
-0.176889 -0.035000 -0.026930 0.002810	0.367300
-0.176409 -0.035000 -0.027079 0.002799	0.366586
-0.176011 -0.035000 -0.027202 0.002805	0.365488
-0.175538 -0.035000 -0.027349 0.002833	0.363864
-0.175308 -0.035000 -0.027420 0.002835	0.363331
-0.174418 -0.035000 -0.027693 0.002842	0.360990
-0.174164 -0.035000 -0.027770 0.002843	0.360460
-0.173869 -0.035000 -0.027860 0.002846	0.359854
-0.173150 -0.035000 -0.028078 0.002895	0.358602
-0.172943 -0.035000 -0.028140 0.002902	0.357982
-0.172349 -0.035000 -0.028319 0.002910	0.355921
-0.171933 -0.035000 -0.028444 0.002927	0.354586
-0.171625 -0.035000 -0.028536 0.002938	0.353624
-0.171501 -0.035000 -0.028573 0.002934	0.353152
-0.171054 -0.035000 -0.028706 0.002923	0.351424
-0.170818 -0.035000 -0.028776 0.002916	0.350583
-0.170638 -0.035000 -0.028829 0.002913	0.350154
-0.170121 -0.035000 -0.028981 0.002911	0.348777
-0.169764 -0.035000 -0.029086 0.002910	0.347915
-0.169356 -0.035000 -0.029206 0.002916	0.346945
-0.169073 -0.035000 -0.029289 0.002915	0.346382
-0.168583 -0.035000 -0.029432 0.002916	0.345558
-0.168264 -0.035000 -0.029524 0.002901	0.344830
-0.167735 -0.035000 -0.029678 0.002904	0.343854
-0.167328 -0.035000 -0.029795 0.002898	0.342941
-0.166836 -0.035000 -0.029937 0.002913	0.341803
-0.166390 -0.035000 -0.030065 0.002915	0.341006
-0.165904 -0.035000 -0.030204 0.002914	0.339799
-0.165462 -0.035000 -0.030330 0.002921	0.339007
-0.164803 -0.035000 -0.030517 0.002928	0.337369
-0.164497 -0.035000 -0.030603 0.002930	0.336677
-0.163669 -0.035000 -0.030836 0.002936	0.334947
-0.163562 -0.035000 -0.030866 0.002938	0.334750
-0.163202 -0.035000 -0.030967 0.002942	0.334228
-0.162697 -0.035000 -0.031108 0.002949	0.333401
-0.162223 -0.035000 -0.031239 0.002963	0.332221
-0.161964 -0.035000 -0.031311 0.002973	0.331524
-0.161836 -0.035000 -0.031347 0.002974	0.331242
-0.161302 -0.035000 -0.031494 0.002979	0.329726
-0.160840 -0.035000 -0.031621 0.002978	0.328413
-0.160701 -0.035000 -0.031659 0.002981	0.328034
-0.160481 -0.035000 -0.031719 0.002986	0.327290
-0.160015 -0.035000 -0.031846 0.002990	0.325669
-0.159480 -0.035000 -0.031991 0.003020	0.323338
-0.159341 -0.035000 -0.032029 0.003020	0.322897
-0.158865 -0.035000 -0.032157 0.002985	0.322064
-0.158171 -0.035000 -0.032344 0.002973	0.320537
-0.158131 -0.035000 -0.032354 0.002973	0.320464
-0.158073 -0.035000 -0.032370 0.002971	0.320427
-0.157335 -0.035000 -0.032567 0.002948	0.319792
-0.156723 -0.035000 -0.032729 0.002914	0.319882
-0.156533 -0.035000 -0.032780 0.002903	0.319794
-0.156375 -0.035000 -0.032821 0.002906	0.319645
-0.155797 -0.035000 -0.032974 0.002913	0.319017
-0.155364 -0.035000 -0.033088 0.002921	0.318506
-0.155112 -0.035000 -0.033154 0.002924	0.318282
-0.154239 -0.035000 -0.033383 0.002947	0.317901
-0.153598 -0.035000 -0.033551 0.002957	0.317555
-0.153210 -0.035000 -0.033652 0.002955	0.317167
-0.152990 -0.035000 -0.033709 0.002957	0.316795
-0.152146 -0.035000 -0.033927 0.002993	0.315011
-0.152125 -0.035000 -0.033933 0.002992	0.314964
-0.151423 -0.035000 -0.034113 0.002976	0.313401
-0.151138 -0.035000 -0.034187 0.002978	0.312766
-0.150859 -0.035000 -0.034258 0.002986	0.312202
-0.150180 -0.035000 -0.034432 0.002999	0.310993
-0.149597 -0.035000 -0.034580 0.003010	0.310280
-0.149340 -0.035000 -0.034645 0.003009	0.309861
-0.148372 -0.035000 -0.034889 0.002994	0.307652
-0.148069 -0.035000 -0.034966 0.003005	0.306982
-0.147350 -0.035000 -0.035145 0.003022	0.305273
-0.146552 -0.035000 -0.035344 0.003024	0.303622
-0.145630 -0.035000 -0.035573 0.003041	0.301592
-0.145446 -0.035000 -0.035618 0.003040	0.301257
-0.145258 -0.035000 -0.035664 0.003051	0.300589
-0.144428 -0.035000 -0.035867 0.003078	0.297750
-0.144107 -0.035000 -0.035946 0.003089	0.296949
-0.143384 -0.035000 -0.036121 0.003063	0.295538
-0.143208 -0.035000 -0.036164 0.003054	0.295285
-0.143126 -0.035000 -0.036184 0.003054	0.295056
-0.142240 -0.035000 -0.036397 0.003046	0.293308
-0.141929 -0.035000 -0.036471 0.003039	0.292539
-0.141239 -0.035000 -0.036637 0.003024	0.291693
-0.140905 -0.035000 -0.036716 0.003014	0.291279
-0.140391 -0.035000 -0.036838 0.003007	0.290895
-0.139998 -0.035000 -0.036931 0.002995	0.290540
-0.139570 -0.035000 -0.037033 0.002994	0.290352
-0.139190 -0.035000 -0.037122 0.002994	0.290172
-0.138559 -0.035000 -0.037270 0.002992	0.289714
-0.138417 -0.035000 -0.037304 0.002992	0.289556
-0.137957 -0.035000 -0.037411 0.002986	0.288966
-0.137499 -0.035000 -0.037518 0.002979	0.288376
-0.137214 -0.035000 -0.037585 0.002982	0.288022
-0.136744 -0.035000 -0.037694 0.002991	0.287625
-0.136104 -0.035000 -0.037842 0.002990	0.287324
-0.135747 -0.035000 -0.037925 0.002984	0.287135
-0.135229 -0.035000 -0.038044 0.002994	0.286596
-0.134599 -0.035000 -0.038189 0.002998	0.286121
-0.134406 -0.035000 -0.038234 0.002998	0.285856
-0.133683 -0.035000 -0.038399 0.002997	0.284690
-0.133372 -0.035000 -0.038470 0.002997	0.284202
-0.133285 -0.035000 -0.038490 0.002999	0.284037
-0.132373 -0.035000 -0.038696 0.002999	0.283469
-0.131849 -0.035000 -0.038815 0.002990	0.283025
-0.131434 -0.035000 -0.038908 0.002991	0.282550
-0.130984 -0.035000 -0.039009 0.002996	0.282039
-0.130345 -0.035000 -0.039153 0.003004	0.281299
-0.129759 -0.035000 -0.039284 0.003002	0.280514
-0.129246 -0.035000 -0.039398 0.003005	0.279934
-0.128799 -0.035000 -0.039497 0.003014	0.279108
-0.128251 -0.035000 -0.039618 0.003025	0.278200
-0.127320 -0.035000 -0.039824 0.003029	0.277084
-0.127130 -0.035000 -0.039865 0.003024	0.276887
-0.126299 -0.035000 -0.040047 0.003005	0.275922
-0.125968 -0.035000 -0.040119 0.003006	0.275633
-0.125028 -0.035000 -0.040324 0.003031	0.274331
-0.124951 -0.035000 -0.040341 0.003031	0.274256
-0.123880 -0.035000 -0.040572 0.003011	0.272266
-0.123791 -0.035000 -0.040591 0.003013	0.272095
-0.122785 -0.035000 -0.040807 0.003036	0.270732
-0.122683 -0.035000 -0.040829 0.003039	0.270619
-0.121861 -0.035000 -0.041004 0.003064	0.269575
-0.121535 -0.035000 -0.041073 0.003066	0.268964
-0.121108 -0.035000 -0.041164 0.003072	0.267891
-0.120933 -0.035000 -0.041201 0.003071	0.267453
-0.120269 -0.035000 -0.041341 0.003082	0.266043
-0.119745 -0.035000 -0.041451 0.003085	0.264547
-0.119219 -0.035000 -0.041561 0.003085	0.263235
-0.118971 -0.035000 -0.041612 0.003085	0.262547
-0.118666 -0.035000 -0.041675 0.003089	0.261760
-0.117862 -0.035000 -0.041842 0.003095	0.259769
-0.117211 -0.035000 -0.041976 0.003103	0.258644
-0.116811 -0.035000 -0.042058 0.003103	0.257696
-0.116228 -0.035000 -0.042176 0.003093	0.256393
-0.115924 -0.035000 -0.042238 0.003089	0.255633
-0.115831 -0.035000 -0.042257 0.003084	0.255394
-0.115066 -0.035000 -0.042411 0.003048	0.254608
-0.114853 -0.035000 -0.042454 0.003037	0.254286
-0.114166 -0.035000 -0.042592 0.003032	0.254151
-0.113821 -0.035000 -0.042661 0.003023	0.253936
-0.113130 -0.035000 -0.042799 0.003020	0.253780
-0.112602 -0.035000 -0.042904 0.003004	0.253760
-0.112067 -0.035000 -0.043010 0.003001	0.253770
-0.111399 -0.035000 -0.043142 0.002976	0.254092
-0.110895 -0.035000 -0.043241 0.002966	0.254076
-0.110073 -0.035000 -0.043403 0.002947	0.254659
-0.109398 -0.035000 -0.043535 0.002937	0.254789
-0.108541 -0.035000 -0.043703 0.002953	0.255368
-0.107841 -0.035000 -0.043839 0.002934	0.255913
-0.106578 -0.035000 -0.044085 0.002950	0.256209
-0.106561 -0.035000 -0.044088 0.002950	0.256210
-0.106550 -0.035000 -0.044090 0.002950	0.256206
-0.105292 -0.035000 -0.044334 0.002968	0.255748
-0.104563 -0.035000 -0.044474 0.002986	0.255315
-0.104436 -0.035000 -0.044498 0.002987	0.255234
-0.103550 -0.035000 -0.044668 0.002995	0.254759
-0.103548 -0.035000 -0.044669 0.002995	0.254758
-0.103548 -0.035000 -0.044669 0.002995	0.254758
-0.102199 -0.035000 -0.044926 0.003027	0.253077
-0.102149 -0.035000 -0.044936 0.003028	0.252994
-0.100904 -0.035000 -0.045171 0.003023	0.251103
-0.100790 -0.035000 -0.045193 0.003022	0.250921
-0.100638 -0.035000 -0.045222 0.003024	0.250694
-0.099617 -0.035000 -0.045414 0.003029	0.248983
-0.099133 -0.035000 -0.045504 0.003034	0.248269
-0.098543 -0.035000 -0.045614 0.003039	0.247227
-0.098100 -0.035000 -0.045697 0.003038	0.246788
-0.097487 -0.035000 -0.045810 0.003047	0.245764
-0.097187 -0.035000 -0.045866 0.003051	0.245263
-0.096435 -0.035000 -0.046004 0.003089	0.243876
-0.096286 -0.035000 -0.046032 0.003092	0.243594
-0.095544 -0.035000 -0.046167 0.003124	0.242034
-0.094759 -0.035000 -0.046310 0.003123	0.239637
-0.094675 -0.035000 -0.046325 0.003125	0.239424
-0.094592 -0.035000 -0.046340 0.003124	0.239197
-0.093790 -0.035000 -0.046484 0.003088	0.237366
-0.093136 -0.035000 -0.046601 0.003067	0.236171
-0.092794 -0.035000 -0.046662 0.003057	0.235736
-0.092177 -0.035000 -0.046772 0.003057	0.235308
-0.091774 -0.035000 -0.046844 0.003055	0.235074
-0.091312 -0.035000 -0.046925 0.003051	0.234849
-0.090834 -0.035000 -0.047010 0.003044	0.234683
-0.090628 -0.035000 -0.047046 0.003043	0.234465
-0.090053 -0.035000 -0.047147 0.003031	0.234025
-0.089461 -0.035000 -0.047251 0.003047	0.233422
-0.089211 -0.035000 -0.047294 0.003048	0.233308
-0.088934 -0.035000 -0.047343 0.003045	0.233054
-0.088052 -0.035000 -0.047496 0.003022	0.232672
-0.087426 -0.035000 -0.047604 0.003022	0.232416
-0.086819 -0.035000 -0.047709 0.003018	0.232152
-0.085964 -0.035000 -0.047856 0.002993	0.231794
-0.085502 -0.035000 -0.047935 0.002996	0.231482
-0.084482 -0.035000 -0.048109 0.002963	0.230812
-0.084303 -0.035000 -0.048140 0.002964	0.230700
-0.083970 -0.035000 -0.048196 0.002962	0.230579
-0.083011 -0.035000 -0.048358 0.002970	0.230578
-0.082376 -0.035000 -0.048466 0.002967	0.230699
-0.081622 -0.035000 -0.048592 0.002944	0.230914
-0.081121 -0.035000 -0.048677 0.002947	0.230797
-0.079950 -0.035000 -0.048873 0.002968	0.231167
-0.079780 -0.035000 -0.048901 0.002971	0.231203
-0.079677 -0.035000 -0.048919 0.002973	0.231249
-0.078324 -0.035000 -0.049144 0.002991	0.231000
-0.078003 -0.035000 -0.049197 0.002990	0.230836
-0.077182 -0.035000 -0.049333 0.002974	0.229778
-0.076786 -0.035000 -0.049398 0.002983	0.229363
-0.075931 -0.035000 -0.049538 0.002989	0.228668
-0.075654 -0.035000 -0.049584 0.002992	0.228467
-0.075476 -0.035000 -0.049613 0.003001	0.228385
-0.074614 -0.035000 -0.049754 0.003028	0.228147
-0.073877 -0.035000 -0.049873 0.003025	0.227455
-0.073518 -0.035000 -0.049932 0.003032	0.227246
-0.073216 -0.035000 -0.049980 0.003040	0.226882
-0.072622 -0.035000 -0.050076 0.003049	0.226213
-0.072268 -0.035000 -0.050133 0.003063	0.225610
-0.071758 -0.035000 -0.050215 0.003093	0.224585
-0.071721 -0.035000 -0.050221 0.003095	0.224513
-0.071642 -0.035000 -0.050234 0.003105	0.224185
-0.071125 -0.035000 -0.050317 0.003168	0.222087
-0.070978 -0.035000 -0.050340 0.003157	0.221169
-0.070414 -0.035000 -0.050429 0.003153	0.218658
-0.070181 -0.035000 -0.050465 0.003153	0.217557
-0.069707 -0.035000 -0.050539 0.003103	0.216785
-0.069414 -0.035000 -0.050585 0.003075	0.216174
-0.068913 -0.035000 -0.050663 0.003052	0.215676
-0.068533 -0.035000 -0.050721 0.003037	0.215401
-0.068280 -0.035000 -0.050761 0.003028	0.215238
-0.067427 -0.035000 -0.050892 0.003008	0.215001
-0.066785 -0.035000 -0.050991 0.003015	0.215030
-0.065923 -0.035000 -0.051123 0.003020	0.215426
-0.065416 -0.035000 -0.051200 0.003019	0.215516
-0.064818 -0.035000 -0.051291 0.003011	0.215507
-0.064204 -0.035000 -0.051384 0.003003	0.215303
-0.064008 -0.035000 -0.051414 0.003001	0.215238
-0.063228 -0.035000 -0.051532 0.002989	0.215119
-0.062772 -0.035000 -0.051601 0.002988	0.215190
-0.062308 -0.035000 -0.051670 0.002991	0.215368
-0.062130 -0.035000 -0.051697 0.002991	0.215416
-0.061106 -0.035000 -0.051850 0.002989	0.215503
-0.060826 -0.035000 -0.051892 0.002989	0.215493
-0.060210 -0.035000 -0.051984 0.002989	0.215517
-0.059512 -0.035000 -0.052087 0.002986	0.215390
-0.059389 -0.035000 -0.052106 0.002986	0.215379
-0.059071 -0.035000 -0.052153 0.002983	0.215392
-0.058542 -0.035000 -0.052231 0.002977	0.215449
-0.058437 -0.035000 -0.052246 0.002976	0.215483
-0.058122 -0.035000 -0.052292 0.002974	0.215393
-0.057284 -0.035000 -0.052416 0.002967	0.215238
-0.056588 -0.035000 -0.052517 0.002967	0.214962
-0.055998 -0.035000 -0.052603 0.002963	0.214808
-0.055640 -0.035000 -0.052655 0.002964	0.214770
-0.054536 -0.035000 -0.052815 0.002963	0.214707
-0.053934 -0.035000 -0.052902 0.002958	0.214633
-0.053285 -0.035000 -0.052995 0.002962	0.214774
-0.052662 -0.035000 -0.053084 0.002957	0.214682
-0.052000 -0.035000 -0.053179 0.002946	0.214465
-0.051013 -0.035000 -0.053319 0.002955	0.213611
-0.050782 -0.035000 -0.053352 0.002957	0.213426
-0.050364 -0.035000 -0.053411 0.002960	0.213122
-0.049585 -0.035000 -0.053520 0.002951	0.212385
-0.049255 -0.035000 -0.053567 0.002961	0.212030
-0.048278 -0.035000 -0.053704 0.002943	0.211282
-0.047991 -0.035000 -0.053744 0.002930	0.211505
-0.047404 -0.035000 -0.053825 0.002913	0.211752
-0.047057 -0.035000 -0.053874 0.002903	0.211528