TITLE     = "Surface mesh and solution"
VARIABLES = "x"
"y"
"z"
"cfx"
"Cp"
DATASETAUXDATA alpha_deg="  0.0000000E+00"
DATASETAUXDATA beta_deg="  0.0000000E+00"
DATASETAUXDATA bref="  0.7500000"
DATASETAUXDATA cref="   1.000000"
DATASETAUXDATA itranflg="           0"
DATASETAUXDATA ivisc="           2"
DATASETAUXDATA mach="  0.2000000"
DATASETAUXDATA reue_mil="   4.600000"
DATASETAUXDATA sref="  0.7500000"
DATASETAUXDATA tinf_r="   521.0000"
DATASETAUXDATA xmc="  0.0000000E+00"
DATASETAUXDATA ymc="  0.0000000E+00"
DATASETAUXDATA zmc="  0.0000000E+00"
ZONE T="Slice: Y=-0.001"
 STRANDID=0, SOLUTIONTIME=0
 Nodes=541, Elements=522, ZONETYPE=FELineSeg
 DATAPACKING=POINT
 DT=(DOUBLE DOUBLE DOUBLE DOUBLE DOUBLE )
 -2.398236276E-01 -1.000000000E-03 2.549299140E-02 -8.093165301E-04 9.710872830E-01
 -2.397203868E-01 -1.000000000E-03 2.537022628E-02 -7.844716044E-04 9.730831009E-01
 -2.393202834E-01 -1.000000000E-03 2.490284707E-02 -6.939181149E-04 9.803275688E-01
 -2.392175673E-01 -1.000000000E-03 2.478480531E-02 -6.705847237E-04 9.819454643E-01
 -2.387832686E-01 -1.000000000E-03 2.429453502E-02 -5.718546358E-04 9.880336641E-01
 -2.386633410E-01 -1.000000000E-03 2.416137070E-02 -5.460929991E-04 9.894712880E-01
 -2.381974153E-01 -1.000000000E-03 2.365323477E-02 -4.489885737E-04 9.941188553E-01
 -2.380770891E-01 -1.000000000E-03 2.352412551E-02 -4.249923397E-04 9.951658820E-01
 -2.375696970E-01 -1.000000000E-03 2.298931162E-02 -3.276647917E-04 9.990894413E-01
 -2.374296724E-01 -1.000000000E-03 2.284412359E-02 -3.019252699E-04 9.998882500E-01
 -2.368871694E-01 -1.000000000E-03 2.229145851E-02 -2.049326205E-04 1.002368070E+00
 -2.367472817E-01 -1.000000000E-03 2.215120147E-02 -1.821120377E-04 1.002821014E+00
 -2.361569157E-01 -1.000000000E-03 2.156943683E-02 -8.966461687E-05 1.004193116E+00
 -2.359930215E-01 -1.000000000E-03 2.141047891E-02 -6.552644627E-05 1.004404251E+00
 -2.353605804E-01 -1.000000000E-03 2.080765445E-02 2.861144802E-05 1.004795193E+00
 -2.351959045E-01 -1.000000000E-03 2.065316557E-02 5.140200452E-05 1.004688785E+00
 -2.345093452E-01 -1.000000000E-03 2.002027466E-02 1.443517135E-04 1.003683322E+00
 -2.343190130E-01 -1.000000000E-03 1.984766707E-02 1.677264136E-04 1.003236216E+00
 -2.335874392E-01 -1.000000000E-03 1.919587311E-02 2.563489210E-04 1.001133325E+00
 -2.333984078E-01 -1.000000000E-03 1.903016038E-02 2.769413816E-04 1.000466231E+00
 -2.326061469E-01 -1.000000000E-03 1.834782194E-02 3.628603525E-04 9.972233314E-01
 -2.323880602E-01 -1.000000000E-03 1.816305010E-02 3.841207653E-04 9.962002911E-01
 -2.315410531E-01 -1.000000000E-03 1.745810544E-02 4.668818646E-04 9.917274482E-01
 -2.313229956E-01 -1.000000000E-03 1.727950458E-02 4.855940695E-04 9.905240155E-01
 -2.303895683E-01 -1.000000000E-03 1.652862050E-02 5.643728425E-04 9.851065193E-01
 -2.301286183E-01 -1.000000000E-03 1.632207710E-02 5.839047788E-04 9.834598103E-01
 -2.291130998E-01 -1.000000000E-03 1.553280018E-02 6.630657374E-04 9.767925105E-01
 4.057638907E-01 -1.000000000E-03 -3.026741050E-02 4.610488556E-04 1.759183469E-01
 4.189561985E-01 -1.000000000E-03 -3.388326155E-02 4.271685884E-04 1.879495928E-01
 3.998580219E-01 -1.000000000E-03 -2.865824577E-02 4.708089844E-04 1.704642709E-01
 3.864684121E-01 -1.000000000E-03 -2.503246178E-02 5.081372140E-04 1.582542857E-01
 4.251589711E-01 -1.000000000E-03 -3.559349839E-02 4.176346138E-04 1.935255939E-01
 3.813997642E-01 -1.000000000E-03 -2.366804185E-02 5.166508230E-04 1.535116819E-01
 3.683531989E-01 -1.000000000E-03 -2.017759839E-02 5.481259964E-04 1.408321041E-01
 3.632370281E-01 -1.000000000E-03 -1.881725235E-02 5.552198564E-04 1.357671847E-01
 3.509097120E-01 -1.000000000E-03 -1.555924310E-02 5.980374497E-04 1.236204938E-01
 3.455054353E-01 -1.000000000E-03 -1.414046910E-02 6.243426825E-04 1.182690825E-01
 3.341962349E-01 -1.000000000E-03 -1.118814205E-02 6.559303551E-04 1.067973833E-01
 3.286715859E-01 -1.000000000E-03 -9.755817195E-03 6.716118697E-04 1.009680803E-01
 3.180515694E-01 -1.000000000E-03 -7.018053582E-03 6.972491020E-04 8.988917114E-02
 3.128912941E-01 -1.000000000E-03 -5.696367351E-03 7.122371323E-04 8.464519349E-02
 3.019645755E-01 -1.000000000E-03 -2.916121377E-03 7.495756314E-04 7.317146227E-02
 -1.986222321E-01 -1.000000000E-03 6.866665143E-02 6.219568920E-03 -1.028773326E+00
 -1.957462564E-01 -1.000000000E-03 6.908989205E-02 6.071520526E-03 -1.006003883E+00
 -2.019387721E-01 -1.000000000E-03 6.812898669E-02 6.388002528E-03 -1.058491902E+00
 -1.992896611E-01 -1.000000000E-03 6.856264942E-02 6.253998150E-03 -1.034331453E+00
 -1.949500045E-01 -1.000000000E-03 6.920089547E-02 6.026156497E-03 -9.998603950E-01
 -1.918533987E-01 -1.000000000E-03 6.960561453E-02 5.907541574E-03 -9.761775382E-01
 -1.910415493E-01 -1.000000000E-03 6.970548743E-02 5.871734271E-03 -9.705016528E-01
 -1.876518199E-01 -1.000000000E-03 7.009353745E-02 5.725384393E-03 -9.467571604E-01
 -1.866938623E-01 -1.000000000E-03 7.019597996E-02 5.678770737E-03 -9.405076443E-01
 -1.829832229E-01 -1.000000000E-03 7.056087145E-02 5.551473045E-03 -9.166536737E-01
 -2.025545240E-01 -1.000000000E-03 6.802265383E-02 6.428708758E-03 -1.064085281E+00
 -2.050026690E-01 -1.000000000E-03 6.758015951E-02 6.582770227E-03 -1.085550871E+00
 -1.819774272E-01 -1.000000000E-03 7.065239423E-02 5.507362019E-03 -9.103944215E-01
 -1.778420441E-01 -1.000000000E-03 7.099356093E-02 5.347152349E-03 -8.856211772E-01
 -1.766536426E-01 -1.000000000E-03 7.108283336E-02 5.294049830E-03 -8.789783902E-01
 -1.720750131E-01 -1.000000000E-03 7.138661346E-02 5.168080028E-03 -8.530519420E-01
 -1.708148972E-01 -1.000000000E-03 7.146092519E-02 5.125876295E-03 -8.466099031E-01
 -1.656738596E-01 -1.000000000E-03 7.171964310E-02 4.960663627E-03 -8.215894317E-01
 -1.641674727E-01 -1.000000000E-03 7.178430707E-02 4.903972489E-03 -8.144863635E-01
 -1.585130654E-01 -1.000000000E-03 7.197796261E-02 4.747217171E-03 -7.877851193E-01
 -1.569363932E-01 -1.000000000E-03 7.202023499E-02 4.705740524E-03 -7.808710784E-01
 -1.506627390E-01 -1.000000000E-03 7.213521476E-02 4.527161617E-03 -7.540598117E-01
 -1.487930633E-01 -1.000000000E-03 7.215571065E-02 4.464593127E-03 -7.466106538E-01
 -1.419207484E-01 -1.000000000E-03 7.217291775E-02 4.248664221E-03 -7.221979051E-01
 -1.399915525E-01 -1.000000000E-03 7.216378248E-02 4.209792509E-03 -7.151945933E-01
 -1.323360675E-01 -1.000000000E-03 7.206377549E-02 4.067999521E-03 -6.867581442E-01
 -1.301826744E-01 -1.000000000E-03 7.202033584E-02 4.041613688E-03 -6.792833478E-01
 -2.462019380E-01 -1.000000000E-03 4.341204442E-02 2.077879009E-03 -6.277442491E-01
 -2.463501032E-01 -1.000000000E-03 4.235803783E-02 1.229312667E-03 -4.710459089E-01
 -2.463860916E-01 -1.000000000E-03 4.197359126E-02 9.294695210E-04 -4.136500812E-01
 -2.463387283E-01 -1.000000000E-03 4.246181975E-02 1.306009341E-03 -4.870627300E-01
 -2.462940349E-01 -1.000000000E-03 4.282049377E-02 1.597196868E-03 -5.437253038E-01
 -2.464234956E-01 -1.000000000E-03 4.137440014E-02 4.857320593E-04 -3.258808997E-01
 -2.464358632E-01 -1.000000000E-03 4.097637897E-02 2.052858751E-04 -2.683582975E-01
 -2.463944648E-01 -1.000000000E-03 4.186627615E-02 8.498883139E-04 -3.978534879E-01
 -2.464188957E-01 -1.000000000E-03 4.147298875E-02 5.551748154E-04 -3.401809732E-01
 -2.464359886E-01 -1.000000000E-03 4.037433192E-02 -1.885439272E-04 -1.825577397E-01
 -2.464237960E-01 -1.000000000E-03 3.997576305E-02 -4.339687139E-04 -1.267915956E-01
 -2.464375017E-01 -1.000000000E-03 4.087040610E-02 1.349892699E-04 -2.532266964E-01
 -2.464374942E-01 -1.000000000E-03 4.047282431E-02 -1.274917326E-04 -1.964251210E-01
 -2.464189259E-01 -1.000000000E-03 3.986989628E-02 -4.957333945E-04 -1.121531259E-01
 -2.462781562E-01 -1.000000000E-03 4.293444278E-02 1.688121731E-03 -5.610157631E-01
 -2.462188709E-01 -1.000000000E-03 4.330905092E-02 1.997311578E-03 -6.137943941E-01
 6.102532076E-02 -1.000000000E-03 5.016842756E-02 1.806956398E-03 -2.553523190E-01
 7.442157150E-02 -1.000000000E-03 4.775331173E-02 1.720087307E-03 -2.329582660E-01
 5.685485679E-02 -1.000000000E-03 5.090324911E-02 1.845504643E-03 -2.622043483E-01
 4.315480083E-02 -1.000000000E-03 5.325732091E-02 1.953224920E-03 -2.859705178E-01
 2.440226284E-01 -1.000000000E-03 1.138677053E-02 9.082265868E-04 7.298155529E-03
 2.296900673E-01 -1.000000000E-03 1.480035520E-02 9.647754322E-04 -1.013253620E-02
 2.481413111E-01 -1.000000000E-03 1.039594912E-02 9.000313478E-04 1.224010213E-02
 2.617696727E-01 -1.000000000E-03 7.088709335E-03 8.503430691E-04 2.817199352E-02
 1.914568037E-01 -1.000000000E-03 2.363904072E-02 1.117483741E-03 -5.907608362E-02
 2.061162791E-01 -1.000000000E-03 2.029794113E-02 1.057299550E-03 -4.005848043E-02
 1.872423599E-01 -1.000000000E-03 2.458789296E-02 1.128351244E-03 -6.477472150E-02
 1.725478443E-01 -1.000000000E-03 2.785455219E-02 1.189351699E-03 -8.499208457E-02
 2.004681263E-02 -1.000000000E-03 5.700851774E-02 2.136203580E-03 -3.274237733E-01
 1.298722256E-01 -1.000000000E-03 3.694599585E-02 1.396530195E-03 -1.464219676E-01
 1.155780796E-01 -1.000000000E-03 3.984820195E-02 1.476895799E-03 -1.678031017E-01
 1.343062339E-01 -1.000000000E-03 3.603063184E-02 1.381759873E-03 -1.397230942E-01
 1.486542859E-01 -1.000000000E-03 3.302025782E-02 1.301401248E-03 -1.182090316E-01
 2.252626405E-01 -1.000000000E-03 1.584430632E-02 9.752956348E-04 -1.572383461E-02
 2.107903856E-01 -1.000000000E-03 1.921987376E-02 1.040113913E-03 -3.413970759E-02
 1.679973822E-01 -1.000000000E-03 2.885252656E-02 1.205087738E-03 -9.121815998E-02
 1.535227599E-01 -1.000000000E-03 3.198302239E-02 1.280127926E-03 -1.111874386E-01
 1.109006518E-01 -1.000000000E-03 4.078092647E-02 1.502036525E-03 -1.746504187E-01
 9.648970850E-02 -1.000000000E-03 4.360146561E-02 1.592824440E-03 -1.971176717E-01
 7.839696270E-02 -1.000000000E-03 4.702099652E-02 1.725142457E-03 -2.263445482E-01
 9.245117545E-02 -1.000000000E-03 4.437657791E-02 1.635852212E-03 -2.036901299E-01
 3.912768238E-02 -1.000000000E-03 5.393127331E-02 1.964556035E-03 -2.931976810E-01
 2.457807597E-02 -1.000000000E-03 5.629546890E-02 2.104660810E-03 -3.191952200E-01
 2.664924486E-01 -1.000000000E-03 5.931865241E-03 8.365033335E-04 3.350684775E-02
 2.796077912E-01 -1.000000000E-03 2.693498649E-03 7.933154596E-04 4.837053124E-02
 2.846549139E-01 -1.000000000E-03 1.436254935E-03 7.995953692E-04 5.421822927E-02
 2.968769133E-01 -1.000000000E-03 -1.629731648E-03 7.609858911E-04 6.782669662E-02
 3.019645755E-01 -1.000000000E-03 -2.916121377E-03 7.495756314E-04 7.317146227E-02
 -2.288461175E-01 -1.000000000E-03 1.532858825E-02 6.802535014E-04 9.749627513E-01
 -2.277254587E-01 -1.000000000E-03 1.448675336E-02 7.539107977E-04 9.670734591E-01
 -2.291130998E-01 -1.000000000E-03 1.553280018E-02 6.630657374E-04 9.767925105E-01
 -2.274106656E-01 -1.000000000E-03 1.425416834E-02 7.713725447E-04 9.647998157E-01
 -2.262069777E-01 -1.000000000E-03 1.338102314E-02 8.419968147E-04 9.559478689E-01
 -2.258906174E-01 -1.000000000E-03 1.315533751E-02 8.568837965E-04 9.535486273E-01
 -2.245802632E-01 -1.000000000E-03 1.223765426E-02 9.201570132E-04 9.435781138E-01
 -2.242134324E-01 -1.000000000E-03 1.198508314E-02 9.342569460E-04 9.407817241E-01
 -2.228084308E-01 -1.000000000E-03 1.103562612E-02 9.914685036E-04 9.301080685E-01
 -2.224383930E-01 -1.000000000E-03 1.078969347E-02 1.002911340E-03 9.272764432E-01
 -2.208839914E-01 -1.000000000E-03 9.775939097E-03 1.054264388E-03 9.156399063E-01
 -2.204470216E-01 -1.000000000E-03 9.495701614E-03 1.065409358E-03 9.123970417E-01
 -2.187499810E-01 -1.000000000E-03 8.427837504E-03 1.116702911E-03 8.998981558E-01
 -2.183168006E-01 -1.000000000E-03 8.159704512E-03 1.126475191E-03 8.967984338E-01
 -2.164104319E-01 -1.000000000E-03 7.002414816E-03 1.176724963E-03 8.831224522E-01
 -2.159209767E-01 -1.000000000E-03 6.710332566E-03 1.186554008E-03 8.795835043E-01
 -2.137996964E-01 -1.000000000E-03 5.469654350E-03 1.237658664E-03 8.649766075E-01
 -2.133956179E-01 -1.000000000E-03 5.237462123E-03 1.243508739E-03 8.622955463E-01
 -2.110002059E-01 -1.000000000E-03 3.887719195E-03 1.283967473E-03 8.466784700E-01
 -2.104903510E-01 -1.000000000E-03 3.605644003E-03 1.289495475E-03 8.434232988E-01
 -2.079081746E-01 -1.000000000E-03 2.205476556E-03 1.329167797E-03 8.276459564E-01
 -2.072534828E-01 -1.000000000E-03 1.856920182E-03 1.336318453E-03 8.237442075E-01
 -2.044918439E-01 -1.000000000E-03 4.163529660E-04 1.377075022E-03 8.077655344E-01
 -2.037235474E-01 -1.000000000E-03 2.290094077E-05 1.384839148E-03 8.034411178E-01
 -2.007027772E-01 -1.000000000E-03 -1.491492979E-03 1.431144600E-03 7.872035950E-01
 -1.999057782E-01 -1.000000000E-03 -1.883640608E-03 1.438222239E-03 7.830937686E-01
 -1.965483336E-01 -1.000000000E-03 -3.500477680E-03 1.480764220E-03 7.666226020E-01
 -1.955996144E-01 -1.000000000E-03 -3.948785177E-03 1.487997958E-03 7.620243989E-01
 -1.918835998E-01 -1.000000000E-03 -5.666185510E-03 1.538153264E-03 7.447392355E-01
 -1.908821046E-01 -1.000000000E-03 -6.120216088E-03 1.548492965E-03 7.404293569E-01
 -1.866827864E-01 -1.000000000E-03 -7.980581925E-03 1.591440775E-03 7.230075187E-01
 -1.854626881E-01 -1.000000000E-03 -8.510307882E-03 1.596427220E-03 7.179618699E-01
 -1.807918450E-01 -1.000000000E-03 -1.048976694E-02 1.643537294E-03 6.999721442E-01
 -1.795124150E-01 -1.000000000E-03 -1.102085085E-02 1.649473160E-03 6.953898544E-01
 -1.743074030E-01 -1.000000000E-03 -1.313005587E-02 1.691598458E-03 6.779452884E-01
 -1.728143889E-01 -1.000000000E-03 -1.372226658E-02 1.697381941E-03 6.730777815E-01
 -1.670879494E-01 -1.000000000E-03 -1.593741438E-02 1.739179676E-03 6.554085200E-01
 -1.655215095E-01 -1.000000000E-03 -1.653029596E-02 1.743540012E-03 6.508449658E-01
 -1.591151692E-01 -1.000000000E-03 -1.889440067E-02 1.777748443E-03 6.330181048E-01
 -1.572542452E-01 -1.000000000E-03 -1.956593023E-02 1.780166469E-03 6.281334994E-01
 -1.501514795E-01 -1.000000000E-03 -2.206144399E-02 1.811794980E-03 6.110688777E-01
 -1.481971551E-01 -1.000000000E-03 -2.273252292E-02 1.819533081E-03 6.066333364E-01
 -1.401460549E-01 -1.000000000E-03 -2.542180011E-02 1.835527747E-03 5.889262872E-01
 -1.378574215E-01 -1.000000000E-03 -2.616841175E-02 1.827594938E-03 5.841715751E-01
 -1.288411208E-01 -1.000000000E-03 -2.902498271E-02 1.838744424E-03 5.670184194E-01
 7.209357020E-01 -1.000000000E-03 -1.244354964E-01 -1.561223808E-04 4.299222292E-01
 7.208779874E-01 -1.000000000E-03 -1.244166451E-01 -1.561693397E-04 4.298909425E-01
 7.204772008E-01 -1.000000000E-03 -1.242861097E-01 -1.570979664E-04 4.296683196E-01
 7.144824166E-01 -1.000000000E-03 -1.223333170E-01 -1.670016389E-04 4.263075802E-01
 7.135990010E-01 -1.000000000E-03 -1.220461132E-01 -1.681459508E-04 4.258232516E-01
 7.106099770E-01 -1.000000000E-03 -1.210780724E-01 -1.707635410E-04 4.240362359E-01
 7.046235394E-01 -1.000000000E-03 -1.191379295E-01 -1.642468890E-04 4.204783559E-01
 7.015605576E-01 -1.000000000E-03 -1.181495766E-01 -1.712477660E-04 4.186264917E-01
 6.923735895E-01 -1.000000000E-03 -1.151945447E-01 -1.726669374E-04 4.129636935E-01
 6.893121235E-01 -1.000000000E-03 -1.142134663E-01 -1.730456231E-04 4.109738477E-01
 6.791732252E-01 -1.000000000E-03 -1.109775609E-01 -1.651950890E-04 4.044011760E-01
 4.944055332E-01 -1.000000000E-03 -5.511187569E-02 2.729761224E-04 2.534624926E-01
 4.810645758E-01 -1.000000000E-03 -5.129163903E-02 3.073032218E-04 2.421978631E-01
 4.985145314E-01 -1.000000000E-03 -5.629416992E-02 2.648274327E-04 2.570036995E-01
 5.119313362E-01 -1.000000000E-03 -6.017340740E-02 2.299904021E-04 2.683421440E-01
 6.112342512E-01 -1.000000000E-03 -8.977456684E-02 -4.429108293E-06 3.515584332E-01
 6.245316381E-01 -1.000000000E-03 -9.386089510E-02 -4.726139116E-05 3.626445282E-01
 6.066392954E-01 -1.000000000E-03 -8.836948707E-02 4.944758014E-06 3.477031222E-01
 5.931997030E-01 -1.000000000E-03 -8.428004690E-02 4.326590422E-05 3.366748809E-01
 6.293418756E-01 -1.000000000E-03 -9.534670032E-02 -5.658473064E-05 3.666471807E-01
 6.424596299E-01 -1.000000000E-03 -9.941823966E-02 -9.849645258E-05 3.772083639E-01
 6.753021327E-01 -1.000000000E-03 -1.097469051E-01 -1.634140892E-04 4.017954254E-01
 6.639721022E-01 -1.000000000E-03 -1.061619030E-01 -1.431951829E-04 3.935947870E-01
 4.764307200E-01 -1.000000000E-03 -4.997141689E-02 3.159508801E-04 2.383915748E-01
 4.631032043E-01 -1.000000000E-03 -4.619312395E-02 3.460140250E-04 2.270133845E-01
 5.167823604E-01 -1.000000000E-03 -6.158300011E-02 2.205614742E-04 2.724849334E-01
 5.303517850E-01 -1.000000000E-03 -6.554546117E-02 1.871040351E-04 2.839418971E-01
 6.594900138E-01 -1.000000000E-03 -1.047498454E-01 -1.384024221E-04 3.903272546E-01
 6.468877084E-01 -1.000000000E-03 -1.007997796E-01 -1.062935922E-04 3.807017356E-01
 5.879238248E-01 -1.000000000E-03 -8.268291367E-02 5.371267080E-05 3.323623366E-01
 5.743622001E-01 -1.000000000E-03 -7.859806714E-02 8.971044117E-05 3.207148061E-01
 4.578866681E-01 -1.000000000E-03 -4.472213892E-02 3.512163017E-04 2.225236080E-01
 4.444465070E-01 -1.000000000E-03 -4.095212873E-02 3.774656137E-04 2.107534383E-01
 5.357203199E-01 -1.000000000E-03 -6.712133181E-02 1.780758304E-04 2.884226517E-01
 5.495750905E-01 -1.000000000E-03 -7.120880022E-02 1.436741461E-04 3.000449698E-01
 5.688251312E-01 -1.000000000E-03 -7.693898371E-02 9.967330914E-05 3.159859236E-01
 5.549848640E-01 -1.000000000E-03 -7.281318468E-02 1.348183796E-04 3.045310581E-01
 4.383198943E-01 -1.000000000E-03 -3.924343889E-02 3.868658688E-04 2.052535191E-01
 4.251589711E-01 -1.000000000E-03 -3.559349839E-02 4.176346138E-04 1.935255939E-01
 -2.445251280E-01 -1.000000000E-03 3.265775649E-02 -2.100248545E-03 6.755170511E-01
 -2.443536319E-01 -1.000000000E-03 3.229784578E-02 -2.066258327E-03 7.008646410E-01
 -2.447303354E-01 -1.000000000E-03 3.310961880E-02 -2.131085769E-03 6.418322413E-01
 -2.445666636E-01 -1.000000000E-03 3.274725483E-02 -2.107258299E-03 6.690202171E-01
 -2.449293513E-01 -1.000000000E-03 3.357354494E-02 -2.150622586E-03 6.050351780E-01
 -2.447729947E-01 -1.000000000E-03 3.320677811E-02 -2.135896601E-03 6.343083754E-01
 -2.451150102E-01 -1.000000000E-03 3.403378096E-02 -2.154567721E-03 5.663392161E-01
 -2.449670556E-01 -1.000000000E-03 3.366470639E-02 -2.152743143E-03 5.975419027E-01
 -2.452933449E-01 -1.000000000E-03 3.450603762E-02 -2.145145981E-03 5.242390313E-01
 -2.451533867E-01 -1.000000000E-03 3.413270011E-02 -2.153436371E-03 5.577021770E-01
 -2.454578546E-01 -1.000000000E-03 3.497424328E-02 -2.118244478E-03 4.801088073E-01
 -2.453269082E-01 -1.000000000E-03 3.459879486E-02 -2.141184630E-03 5.156889241E-01
 -2.456138143E-01 -1.000000000E-03 3.545434749E-02 -2.072954834E-03 4.323007393E-01
 -2.454915990E-01 -1.000000000E-03 3.507482689E-02 -2.109966772E-03 4.702993124E-01
 -2.457554435E-01 -1.000000000E-03 3.592996722E-02 -2.006186611E-03 3.824387205E-01
 -2.456428966E-01 -1.000000000E-03 3.554859163E-02 -2.061533714E-03 4.226252650E-01
 -2.458872060E-01 -1.000000000E-03 3.641725877E-02 -1.914740107E-03 3.287943941E-01
 -2.457841764E-01 -1.000000000E-03 3.603207771E-02 -1.988809337E-03 3.713804294E-01
 -2.460041124E-01 -1.000000000E-03 3.689954015E-02 -1.798732418E-03 2.732496184E-01
 -2.459114449E-01 -1.000000000E-03 3.651284375E-02 -1.893882489E-03 3.179849122E-01
 -2.461097638E-01 -1.000000000E-03 3.739313970E-02 -1.653925115E-03 2.139089024E-01
 -2.460274358E-01 -1.000000000E-03 3.700300047E-02 -1.770559542E-03 2.610116595E-01
 -2.462000399E-01 -1.000000000E-03 3.788109506E-02 -1.481585506E-03 1.527867315E-01
 -2.461287834E-01 -1.000000000E-03 3.748987752E-02 -1.622391985E-03 2.020360246E-01
 -2.463870760E-01 -1.000000000E-03 3.937471858E-02 -7.783133616E-04 -4.400456026E-02
 -2.463506582E-01 -1.000000000E-03 3.897763429E-02 -9.902966356E-04 9.655639821E-03
 -2.463945892E-01 -1.000000000E-03 3.947296889E-02 -7.249570317E-04 -5.739171554E-02
 -2.464189259E-01 -1.000000000E-03 3.986989628E-02 -4.957333945E-04 -1.121531259E-01
 -2.462776298E-01 -1.000000000E-03 3.837986292E-02 -1.276797848E-03 8.871352561E-02
 -2.462175458E-01 -1.000000000E-03 3.798567463E-02 -1.441166219E-03 1.396553812E-01
 -2.463393678E-01 -1.000000000E-03 3.887222851E-02 -1.043058407E-03 2.369287075E-02
 -2.462910513E-01 -1.000000000E-03 3.847751027E-02 -1.233543759E-03 7.602467948E-02
 7.386058150E-01 -1.000000000E-03 -1.302361330E-01 2.106731743E-03 3.595067281E-01
 7.384002214E-01 -1.000000000E-03 -1.302299071E-01 1.925584347E-03 3.836296319E-01
 7.380738906E-01 -1.000000000E-03 -1.302200249E-01 1.427707171E-03 4.427800483E-01
 7.376657869E-01 -1.000000000E-03 -1.302076368E-01 8.676371215E-04 4.395950200E-01
 7.374235206E-01 -1.000000000E-03 -1.302002848E-01 5.773388624E-04 4.379955303E-01
 7.372527074E-01 -1.000000000E-03 -1.301950882E-01 5.660068318E-04 4.376340018E-01
 7.365037918E-01 -1.000000000E-03 -1.301722493E-01 5.383543720E-04 4.358566772E-01
 7.362628046E-01 -1.000000000E-03 -1.301648790E-01 5.435423705E-04 4.354667383E-01
 7.353491348E-01 -1.000000000E-03 -1.301368155E-01 5.802602386E-04 4.346654312E-01
 7.350505621E-01 -1.000000000E-03 -1.301276141E-01 5.859336774E-04 4.343117414E-01
 7.337707995E-01 -1.000000000E-03 -1.300879544E-01 6.029952117E-04 4.330389597E-01
 7.333903849E-01 -1.000000000E-03 -1.300761200E-01 6.054214993E-04 4.326844989E-01
 7.316917918E-01 -1.000000000E-03 -1.300229103E-01 6.220845602E-04 4.309641686E-01
 7.313006819E-01 -1.000000000E-03 -1.300106041E-01 6.252771473E-04 4.305634789E-01
 7.289117242E-01 -1.000000000E-03 -1.299347385E-01 6.462335282E-04 4.285868939E-01
 7.284724878E-01 -1.000000000E-03 -1.299207112E-01 6.481588953E-04 4.282306323E-01
 7.252341561E-01 -1.000000000E-03 -1.298159953E-01 6.726279293E-04 4.254550132E-01
 7.249436684E-01 -1.000000000E-03 -1.298065381E-01 6.738496454E-04 4.251927842E-01
 7.199731310E-01 -1.000000000E-03 -1.296419305E-01 7.356438671E-04 4.216482321E-01
 7.199274032E-01 -1.000000000E-03 -1.296404045E-01 7.356777469E-04 4.216155180E-01
 7.196388940E-01 -1.000000000E-03 -1.296305256E-01 7.390865952E-04 4.214228220E-01
 7.130733094E-01 -1.000000000E-03 -1.294060481E-01 7.823344245E-04 4.168679694E-01
 7.032037383E-01 -1.000000000E-03 -1.290533513E-01 7.911383234E-04 4.107809424E-01
 7.118181700E-01 -1.000000000E-03 -1.293622140E-01 7.876605081E-04 4.160703319E-01
 7.017347202E-01 -1.000000000E-03 -1.290008262E-01 7.823448289E-04 4.098555352E-01
 7.013435968E-01 -1.000000000E-03 -1.289863681E-01 7.875608131E-04 4.096534127E-01
 6.899268241E-01 -1.000000000E-03 -1.285550037E-01 7.746753171E-04 4.036049143E-01
 6.877117002E-01 -1.000000000E-03 -1.284686648E-01 7.857006022E-04 4.024831704E-01
 4.695969389E-01 -1.000000000E-03 -1.163354951E-01 1.147700774E-03 3.535712533E-01
 4.647886886E-01 -1.000000000E-03 -1.159910605E-01 1.149797038E-03 3.531413499E-01
 4.509762617E-01 -1.000000000E-03 -1.149834789E-01 1.152761110E-03 3.523163754E-01
 4.053138960E-01 -1.000000000E-03 -1.114544563E-01 1.215071761E-03 3.501439227E-01
 3.917075099E-01 -1.000000000E-03 -1.103425021E-01 1.235400343E-03 3.496140336E-01
 3.855181816E-01 -1.000000000E-03 -1.098272669E-01 1.245123012E-03 3.495735695E-01
 3.717124156E-01 -1.000000000E-03 -1.086562971E-01 1.263936599E-03 3.495560403E-01
 4.455658273E-01 -1.000000000E-03 -1.145811906E-01 1.152062919E-03 3.520254227E-01
 4.316401056E-01 -1.000000000E-03 -1.135265209E-01 1.167460943E-03 3.511272020E-01
 4.116038460E-01 -1.000000000E-03 -1.119589343E-01 1.205442707E-03 3.503398745E-01
 4.253127873E-01 -1.000000000E-03 -1.130378314E-01 1.178810171E-03 3.507443167E-01
 3.666839841E-01 -1.000000000E-03 -1.082222764E-01 1.265020430E-03 3.495240450E-01
 2.250043528E-01 -1.000000000E-03 -9.411421701E-02 1.417712853E-03 3.599990409E-01
 2.103314575E-01 -1.000000000E-03 -9.241416221E-02 1.443675638E-03 3.624023622E-01
 2.293203643E-01 -1.000000000E-03 -9.460428048E-02 1.415522544E-03 3.593064341E-01
 2.431281559E-01 -1.000000000E-03 -9.614435518E-02 1.401380662E-03 3.573752568E-01
 1.714097447E-01 -1.000000000E-03 -8.764243002E-02 1.482374887E-03 3.694499861E-01
 1.864073376E-01 -1.000000000E-03 -8.952820648E-02 1.464680369E-03 3.664596857E-01
 1.671960245E-01 -1.000000000E-03 -8.710130854E-02 1.483576015E-03 3.701473260E-01
 1.522025713E-01 -1.000000000E-03 -8.513459734E-02 1.486298977E-03 3.737328598E-01
 3.531092812E-01 -1.000000000E-03 -1.070297371E-01 1.272090410E-03 3.495228272E-01
 3.481164949E-01 -1.000000000E-03 -1.065833548E-01 1.269870449E-03 3.496518711E-01
 3.351702619E-01 -1.000000000E-03 -1.054066619E-01 1.298916333E-03 3.501765762E-01
 2.058721555E-01 -1.000000000E-03 -9.188729197E-02 1.448370928E-03 3.629681641E-01
 1.910076618E-01 -1.000000000E-03 -9.009454710E-02 1.458642629E-03 3.654003131E-01
 1.477013887E-01 -1.000000000E-03 -8.453112566E-02 1.488643531E-03 3.750321940E-01
 2.482642648E-01 -1.000000000E-03 -9.670585172E-02 1.397647258E-03 3.566518859E-01
 2.612986458E-01 -1.000000000E-03 -9.810680580E-02 1.389388452E-03 3.551755333E-01
 3.297401579E-01 -1.000000000E-03 -1.049039419E-01 1.327909660E-03 3.503143133E-01
 3.179406303E-01 -1.000000000E-03 -1.037953206E-01 1.341291328E-03 3.508214218E-01
 2.670473945E-01 -1.000000000E-03 -9.871243303E-02 1.412552368E-03 3.547138198E-01
 2.792639545E-01 -1.000000000E-03 -9.997913915E-02 1.390332624E-03 3.535731559E-01
 3.122572054E-01 -1.000000000E-03 -1.032515473E-01 1.353135397E-03 3.510953073E-01
 3.012977972E-01 -1.000000000E-03 -1.021878598E-01 1.360149915E-03 3.517663702E-01
 2.848359678E-01 -1.000000000E-03 -1.005462040E-01 1.391166311E-03 3.530621468E-01
 2.958936203E-01 -1.000000000E-03 -1.016546728E-01 1.374866784E-03 3.522442785E-01
 -2.402262006E-01 -1.000000000E-03 5.363839505E-02 8.252918119E-03 -1.529740014E+00
 -2.399302814E-01 -1.000000000E-03 5.390722925E-02 8.274285366E-03 -1.532170305E+00
 -2.405879670E-01 -1.000000000E-03 5.329819110E-02 8.208409263E-03 -1.525108168E+00
 -2.402987490E-01 -1.000000000E-03 5.357121555E-02 8.245134951E-03 -1.528931661E+00
 -2.409488565E-01 -1.000000000E-03 5.294509683E-02 8.157656385E-03 -1.518450502E+00
 -2.406644571E-01 -1.000000000E-03 5.322453993E-02 8.197279129E-03 -1.523866494E+00
 -2.412963638E-01 -1.000000000E-03 5.259078826E-02 8.083482670E-03 -1.509670069E+00
 -2.410185278E-01 -1.000000000E-03 5.287522799E-02 8.144487707E-03 -1.516848820E+00
 -2.398505856E-01 -1.000000000E-03 5.397827532E-02 8.281063796E-03 -1.532660129E+00
 -2.395489929E-01 -1.000000000E-03 5.424216097E-02 8.300807562E-03 -1.533925634E+00
 -2.394730111E-01 -1.000000000E-03 5.430745366E-02 8.305833313E-03 -1.534112621E+00
 -2.391620276E-01 -1.000000000E-03 5.456986016E-02 8.311130554E-03 -1.534326873E+00
 -2.390779170E-01 -1.000000000E-03 5.463957801E-02 8.315012456E-03 -1.534209257E+00
 -2.387578727E-01 -1.000000000E-03 5.490010884E-02 8.324054078E-03 -1.533758658E+00
 -2.386768876E-01 -1.000000000E-03 5.496491151E-02 8.328433182E-03 -1.533473938E+00
 -2.383404926E-01 -1.000000000E-03 5.522928207E-02 8.331830979E-03 -1.531852858E+00
 -2.413696969E-01 -1.000000000E-03 5.251410131E-02 8.065821011E-03 -1.507497064E+00
 -2.416421156E-01 -1.000000000E-03 5.222296594E-02 7.996829841E-03 -1.498382051E+00
 -2.382486088E-01 -1.000000000E-03 5.530025969E-02 8.337651012E-03 -1.531317390E+00
 -2.378958712E-01 -1.000000000E-03 5.556781469E-02 8.350387983E-03 -1.529023640E+00
 -2.378053460E-01 -1.000000000E-03 5.563532132E-02 8.354866680E-03 -1.528346004E+00
 -2.374304709E-01 -1.000000000E-03 5.590982382E-02 8.355236662E-03 -1.525297193E+00
 -2.373278197E-01 -1.000000000E-03 5.598369609E-02 8.359738887E-03 -1.524393578E+00
 -2.369357569E-01 -1.000000000E-03 5.626069632E-02 8.375948184E-03 -1.521036024E+00
 -2.368358781E-01 -1.000000000E-03 5.633004620E-02 8.381115804E-03 -1.520070307E+00
 -2.364214908E-01 -1.000000000E-03 5.661245946E-02 8.376716718E-03 -1.516671567E+00
 -2.363085475E-01 -1.000000000E-03 5.668806267E-02 8.379657409E-03 -1.515466297E+00
 -2.358760451E-01 -1.000000000E-03 5.697212296E-02 8.365061831E-03 -1.510406798E+00
 -2.357661389E-01 -1.000000000E-03 5.704302396E-02 8.365551852E-03 -1.509215932E+00
 -2.353079256E-01 -1.000000000E-03 5.733296575E-02 8.357578411E-03 -1.502778649E+00
 -2.351824347E-01 -1.000000000E-03 5.741091569E-02 8.357265121E-03 -1.501215732E+00
 -2.347030400E-01 -1.000000000E-03 5.770288252E-02 8.346983477E-03 -1.495836161E+00
 -2.345808678E-01 -1.000000000E-03 5.777592302E-02 8.338366658E-03 -1.494172919E+00
 -2.340722053E-01 -1.000000000E-03 5.807402571E-02 8.279363127E-03 -1.487841601E+00
 -2.339336698E-01 -1.000000000E-03 5.815368803E-02 8.267840897E-03 -1.485218412E+00
 -2.440836927E-01 -1.000000000E-03 3.175905861E-02 -2.005907129E-03 7.363433268E-01
 -2.438980375E-01 -1.000000000E-03 3.140568147E-02 -1.957820912E-03 7.581100647E-01
 -2.443069953E-01 -1.000000000E-03 3.220246093E-02 -2.056820269E-03 7.073675088E-01
 -2.441288371E-01 -1.000000000E-03 3.184700841E-02 -2.016612149E-03 7.307421178E-01
 -2.438475377E-01 -1.000000000E-03 3.131172022E-02 -1.945002772E-03 7.637110391E-01
 -2.436552914E-01 -1.000000000E-03 3.096182800E-02 -1.892907435E-03 7.837659152E-01
 -2.436064591E-01 -1.000000000E-03 3.087481022E-02 -1.879445448E-03 7.886064756E-01
 -2.434056606E-01 -1.000000000E-03 3.052440294E-02 -1.820473897E-03 8.073538650E-01
 -2.433509684E-01 -1.000000000E-03 3.043087867E-02 -1.804756344E-03 8.121987811E-01
 -2.431417121E-01 -1.000000000E-03 3.008019528E-02 -1.743016569E-03 8.295612379E-01
 -2.430884378E-01 -1.000000000E-03 2.999259829E-02 -1.727265108E-03 8.337503646E-01
 -2.428658187E-01 -1.000000000E-03 2.963367041E-02 -1.660671753E-03 8.497951930E-01
 -2.428046674E-01 -1.000000000E-03 2.953689285E-02 -1.643066924E-03 8.540669848E-01
 -2.425680790E-01 -1.000000000E-03 2.916967779E-02 -1.575966559E-03 8.691011075E-01
 -2.443536319E-01 -1.000000000E-03 3.229784578E-02 -2.066258327E-03 7.008646410E-01
 -2.425070265E-01 -1.000000000E-03 2.907659826E-02 -1.557913671E-03 8.728569289E-01
 -2.422512790E-01 -1.000000000E-03 2.869407010E-02 -1.481939006E-03 8.875134341E-01
 -2.421806955E-01 -1.000000000E-03 2.859036581E-02 -1.460566134E-03 8.913043957E-01