TITLE     = "Surface mesh and solution"
VARIABLES = "x"
"y"
"z"
"cfx"
"Cp"
DATASETAUXDATA alpha_deg="  0.0000000E+00"
DATASETAUXDATA beta_deg="  0.0000000E+00"
DATASETAUXDATA bref="  0.7500000"
DATASETAUXDATA cref="   1.000000"
DATASETAUXDATA itranflg="           0"
DATASETAUXDATA ivisc="           2"
DATASETAUXDATA mach="  0.2000000"
DATASETAUXDATA reue_mil="   4.600000"
DATASETAUXDATA sref="  0.7500000"
DATASETAUXDATA tinf_r="   521.0000"
DATASETAUXDATA xmc="  0.0000000E+00"
DATASETAUXDATA ymc="  0.0000000E+00"
DATASETAUXDATA zmc="  0.0000000E+00"
ZONE T="Slice: Y=-0.001"
STRANDID=0, SOLUTIONTIME=0
Nodes=674, Elements=674, ZONETYPE=FELineSeg
DATAPACKING=POINT
DT=(DOUBLE DOUBLE DOUBLE DOUBLE DOUBLE )
-0.246290 -0.001000 0.042851 0.001146	-0.282033
-0.246358 -0.001000 0.042279 0.000764	-0.234404
-0.246389 -0.001000 0.041900 0.000568	-0.216119
-0.246415 -0.001000 0.041550 0.000377	-0.186930
-0.246428 -0.001000 0.041228 0.000197	-0.182842
-0.246437 -0.001000 0.040856 0.000066	-0.138636
-0.246438 -0.001000 0.040556 -0.000042	-0.004485
-0.246432 -0.001000 0.040221 -0.000130	0.088461
-0.246410 -0.001000 0.039703 -0.000262	0.054750
-0.246408 -0.001000 0.039665 -0.000270	0.050783
-0.246405 -0.001000 0.039629 -0.000281	0.055929
-0.246353 -0.001000 0.038996 -0.000552	0.157105
-0.246298 -0.001000 0.038570 -0.000717	0.209064
-0.246247 -0.001000 0.038168 -0.000809	0.246603
-0.246149 -0.001000 0.037628 -0.000928	0.317732
-0.246090 -0.001000 0.037296 -0.000991	0.351905
-0.246047 -0.001000 0.037099 -0.001054	0.390329
-0.245888 -0.001000 0.036439 -0.001013	0.463244
-0.245837 -0.001000 0.036226 -0.001022	0.490057
-0.245818 -0.001000 0.036159 -0.001027	0.496446
-0.245601 -0.001000 0.035416 -0.001127	0.557476
-0.245474 -0.001000 0.035026 -0.001228	0.600004
-0.245333 -0.001000 0.034619 -0.001266	0.629108
-0.245161 -0.001000 0.034155 -0.001287	0.642682
-0.245017 -0.001000 0.033789 -0.001365	0.677411
-0.244882 -0.001000 0.033461 -0.001378	0.707442
-0.244621 -0.001000 0.032867 -0.001373	0.752264
-0.244575 -0.001000 0.032766 -0.001366	0.759741
-0.244203 -0.001000 0.031993 -0.001280	0.785247
-0.244190 -0.001000 0.031966 -0.001278	0.786534
-0.243766 -0.001000 0.031162 -0.001210	0.832080
-0.243709 -0.001000 0.031059 -0.001191	0.838504
-0.243320 -0.001000 0.030378 -0.000993	0.876034
-0.243151 -0.001000 0.030097 -0.000918	0.887633
-0.242783 -0.001000 0.029504 -0.000751	0.912071
-0.242610 -0.001000 0.029235 -0.000681	0.919699
-0.242018 -0.001000 0.028355 -0.000523	0.927830
-0.241999 -0.001000 0.028327 -0.000520	0.928477
-0.241250 -0.001000 0.027291 -0.000426	0.983066
-0.241246 -0.001000 0.027285 -0.000425	0.983199
-0.241224 -0.001000 0.027257 -0.000422	0.983489
-0.240355 -0.001000 0.026139 -0.000300	0.990884
-0.239827 -0.001000 0.025504 -0.000261	0.996277
-0.239323 -0.001000 0.024907 -0.000198	0.998433
-0.238141 -0.001000 0.023596 -0.000067	1.005409
-0.238017 -0.001000 0.023460 -0.000057	1.006893
-0.237917 -0.001000 0.023356 -0.000047	1.006806
-0.236783 -0.001000 0.022187 0.000045	1.007215
-0.236349 -0.001000 0.021764 0.000078	1.006372
-0.235357 -0.001000 0.020804 0.000148	1.006557
-0.234470 -0.001000 0.019992 0.000225	1.001666
-0.233732 -0.001000 0.019323 0.000283	0.998334
-0.232174 -0.001000 0.017984 0.000435	0.988563
-0.232011 -0.001000 0.017847 0.000452	0.987376
-0.231482 -0.001000 0.017419 0.000495	0.982633
-0.230117 -0.001000 0.016313 0.000612	0.971490
-0.229914 -0.001000 0.016154 0.000626	0.969675
-0.228175 -0.001000 0.014822 0.000740	0.956940
-0.227779 -0.001000 0.014526 0.000761	0.953847
-0.226001 -0.001000 0.013235 0.000865	0.933282
-0.225852 -0.001000 0.013127 0.000873	0.931639
-0.225782 -0.001000 0.013078 0.000877	0.931046
-0.224095 -0.001000 0.011905 0.000907	0.920724
-0.223141 -0.001000 0.011259 0.000946	0.911571
-0.221672 -0.001000 0.010289 0.001007	0.897281
-0.221032 -0.001000 0.009870 0.001015	0.892862
-0.219089 -0.001000 0.008641 0.001106	0.875596
-0.218783 -0.001000 0.008447 0.001119	0.872968
-0.218685 -0.001000 0.008387 0.001120	0.872338
-0.216455 -0.001000 0.007028 0.001133	0.855843
-0.214837 -0.001000 0.006075 0.001122	0.843861
-0.214050 -0.001000 0.005613 0.001117	0.837915
-0.213259 -0.001000 0.005164 0.001165	0.832681
-0.211500 -0.001000 0.004165 0.001271	0.820778
-0.209267 -0.001000 0.002936 0.001279	0.802974
-0.209142 -0.001000 0.002868 0.001281	0.802044
-0.208826 -0.001000 0.002699 0.001298	0.800602
-0.206781 -0.001000 0.001606 0.001368	0.790641
-0.205685 -0.001000 0.001035 0.001400	0.782230
-0.204233 -0.001000 0.000282 0.001404	0.772274
-0.202357 -0.001000 -0.000666 0.001460	0.762087
-0.201566 -0.001000 -0.001066 0.001446	0.757151
-0.200498 -0.001000 -0.001591 0.001489	0.750460
-0.198628 -0.001000 -0.002506 0.001494	0.741375
-0.197327 -0.001000 -0.003131 0.001568	0.734713
-0.195343 -0.001000 -0.004069 0.001641	0.721772
-0.194246 -0.001000 -0.004582 0.001617	0.714935
-0.192564 -0.001000 -0.005354 0.001669	0.707547
-0.191118 -0.001000 -0.006015 0.001657	0.701964
-0.188431 -0.001000 -0.007213 0.001707	0.690163
-0.187825 -0.001000 -0.007484 0.001706	0.687572
-0.187675 -0.001000 -0.007549 0.001705	0.687030
-0.184188 -0.001000 -0.009056 0.001662	0.678934
-0.183682 -0.001000 -0.009276 0.001652	0.677747
-0.183634 -0.001000 -0.009296 0.001652	0.677571
-0.183505 -0.001000 -0.009350 0.001657	0.676952
-0.179946 -0.001000 -0.010843 0.001739	0.659218
-0.179186 -0.001000 -0.011155 0.001754	0.655761
-0.176604 -0.001000 -0.012211 0.001782	0.649950
-0.174595 -0.001000 -0.013016 0.001756	0.640106
-0.172976 -0.001000 -0.013660 0.001805	0.632401
-0.169361 -0.001000 -0.015068 0.001798	0.625242
-0.168991 -0.001000 -0.015211 0.001782	0.624190
-0.165521 -0.001000 -0.016531 0.001746	0.614480
-0.163456 -0.001000 -0.017304 0.001755	0.606212
-0.161388 -0.001000 -0.018069 0.001908	0.597648
-0.159284 -0.001000 -0.018834 0.001926	0.590903
-0.157411 -0.001000 -0.019511 0.001855	0.585231
-0.153309 -0.001000 -0.020965 0.002002	0.576769
-0.153285 -0.001000 -0.020974 0.002002	0.576723
-0.153266 -0.001000 -0.020980 0.002002	0.576673
-0.148936 -0.001000 -0.022481 0.001898	0.562625
-0.146973 -0.001000 -0.023150 0.001984	0.556238
-0.144095 -0.001000 -0.024119 0.001979	0.550942
-0.142997 -0.001000 -0.024484 0.001958	0.549221
-0.139787 -0.001000 -0.025543 0.002140	0.546322
-0.139562 -0.001000 -0.025618 0.002147	0.546166
-0.139534 -0.001000 -0.025627 0.002148	0.546095
-0.136378 -0.001000 -0.026649 0.002147	0.539371
-0.136117 -0.001000 -0.026733 0.002145	0.538836
-0.131996 -0.001000 -0.028043 0.001945	0.530349
-0.131070 -0.001000 -0.028334 0.001960	0.528232
-0.127886 -0.001000 -0.029325 0.001940	0.520044
-0.126658 -0.001000 -0.029702 0.001915	0.517601
-0.123575 -0.001000 -0.030644 0.001824	0.515266
-0.120864 -0.001000 -0.031457 0.001970	0.511135
-0.118165 -0.001000 -0.032264 0.001938	0.505986
-0.114838 -0.001000 -0.033237 0.002152	0.499097
-0.112393 -0.001000 -0.033952 0.002119	0.494923
-0.107221 -0.001000 -0.035428 0.001950	0.482451
-0.106605 -0.001000 -0.035603 0.001915	0.480668
-0.105836 -0.001000 -0.035818 0.001923	0.479894
-0.101063 -0.001000 -0.037146 0.001806	0.476124
-0.095976 -0.001000 -0.038532 0.001744	0.476663
-0.095718 -0.001000 -0.038602 0.001739	0.476470
-0.094365 -0.001000 -0.038963 0.001813	0.473914
-0.089375 -0.001000 -0.040295 0.002061	0.464169
-0.088972 -0.001000 -0.040401 0.002055	0.463544
-0.083945 -0.001000 -0.041712 0.002034	0.453666
-0.082480 -0.001000 -0.042088 0.002018	0.451052
-0.078314 -0.001000 -0.043151 0.001872	0.444333
-0.074490 -0.001000 -0.044109 0.001878	0.440855
-0.072368 -0.001000 -0.044634 0.001899	0.439384
-0.068491 -0.001000 -0.045586 0.001860	0.436575
-0.063717 -0.001000 -0.046739 0.001679	0.434664
-0.061901 -0.001000 -0.047176 0.001654	0.433785
-0.058214 -0.001000 -0.048047 0.001736	0.429240
-0.055741 -0.001000 -0.048632 0.001752	0.426419
-0.050078 -0.001000 -0.049943 0.001796	0.418758
-0.049458 -0.001000 -0.050086 0.001789	0.417992
-0.042272 -0.001000 -0.051711 0.001888	0.411421
-0.040780 -0.001000 -0.052045 0.001925	0.409909
-0.034398 -0.001000 -0.053446 0.001645	0.407631
-0.031008 -0.001000 -0.054181 0.001576	0.404949
-0.024470 -0.001000 -0.055575 0.001817	0.396556
-0.022618 -0.001000 -0.055967 0.001814	0.395162
-0.018645 -0.001000 -0.056791 0.001895	0.391533
-0.014232 -0.001000 -0.057708 0.001895	0.387881
-0.013327 -0.001000 -0.057893 0.001881	0.387113
-0.010896 -0.001000 -0.058384 0.001896	0.385104
-0.005575 -0.001000 -0.059461 0.001827	0.380771
-0.000610 -0.001000 -0.060441 0.001702	0.377641
0.002053 -0.001000 -0.060967 0.001597	0.375906
0.004350 -0.001000 -0.061410 0.001602	0.375046
0.010039 -0.001000 -0.062505 0.001486	0.372340
0.017712 -0.001000 -0.063949 0.001465	0.368137
0.018295 -0.001000 -0.064058 0.001460	0.367724
0.020160 -0.001000 -0.064400 0.001462	0.366340
0.027519 -0.001000 -0.065753 0.001414	0.360481
0.028548 -0.001000 -0.065939 0.001429	0.359846
0.038790 -0.001000 -0.067771 0.001693	0.356223
0.039254 -0.001000 -0.067853 0.001695	0.355912
0.040963 -0.001000 -0.068151 0.001692	0.354086
0.047645 -0.001000 -0.069315 0.001509	0.346957
0.050917 -0.001000 -0.069873 0.001575	0.345196
0.056835 -0.001000 -0.070878 0.001462	0.344205
0.063638 -0.001000 -0.072007 0.001542	0.342020
0.067680 -0.001000 -0.072673 0.001637	0.339984
0.076699 -0.001000 -0.074124 0.001588	0.337152
0.077585 -0.001000 -0.074267 0.001566	0.336879
0.078304 -0.001000 -0.074380 0.001564	0.336417
0.087661 -0.001000 -0.075848 0.001497	0.330103
0.094359 -0.001000 -0.076875 0.001650	0.327229
0.098101 -0.001000 -0.077447 0.001594	0.325898
0.104411 -0.001000 -0.078388 0.001642	0.323145
0.109778 -0.001000 -0.079190 0.001593	0.321427
0.114176 -0.001000 -0.079830 0.001567	0.318156
0.122394 -0.001000 -0.081020 0.001540	0.314211
0.133864 -0.001000 -0.082636 0.001554	0.310652
0.135559 -0.001000 -0.082874 0.001523	0.310059
0.137352 -0.001000 -0.083118 0.001512	0.309736
0.149239 -0.001000 -0.084742 0.001230	0.307109
0.158376 -0.001000 -0.085950 0.001391	0.304416
0.163784 -0.001000 -0.086663 0.001365	0.302000
0.173030 -0.001000 -0.087846 0.001329	0.298417
0.176657 -0.001000 -0.088310 0.001285	0.296931
0.180970 -0.001000 -0.088846 0.001449	0.295250
0.189927 -0.001000 -0.089959 0.001746	0.291978
0.192586 -0.001000 -0.090281 0.001768	0.291112
0.205329 -0.001000 -0.091815 0.001579	0.287808
0.209328 -0.001000 -0.092286 0.001541	0.286921
0.222295 -0.001000 -0.093793 0.001376	0.283130
0.225969 -0.001000 -0.094213 0.001315	0.282319
0.237026 -0.001000 -0.095455 0.001254	0.280654
0.241889 -0.001000 -0.096004 0.001170	0.280041
0.245991 -0.001000 -0.096454 0.001184	0.279870
0.258571 -0.001000 -0.097822 0.001091	0.280138
0.275650 -0.001000 -0.099613 0.001357	0.275366
0.278967 -0.001000 -0.099959 0.001357	0.274237
0.280182 -0.001000 -0.100082 0.001409	0.273848
0.299400 -0.001000 -0.102006 0.001402	0.267313
0.300853 -0.001000 -0.102149 0.001346	0.266770
0.318708 -0.001000 -0.103866 0.001109	0.261882
0.319832 -0.001000 -0.103973 0.001113	0.261661
0.331122 -0.001000 -0.105026 0.001263	0.261246
0.336503 -0.001000 -0.105527 0.001303	0.260993
0.339720 -0.001000 -0.105816 0.001290	0.260972
0.356894 -0.001000 -0.107369 0.001234	0.260979
0.362856 -0.001000 -0.107894 0.001142	0.259823
0.383949 -0.001000 -0.109701 0.001339	0.255185
0.385756 -0.001000 -0.109854 0.001353	0.254788
0.386697 -0.001000 -0.109932 0.001346	0.254516
0.411491 -0.001000 -0.111951 0.001340	0.251200
0.411814 -0.001000 -0.111977 0.001335	0.251179
0.412708 -0.001000 -0.112047 0.001338	0.251145
0.431269 -0.001000 -0.113496 0.001212	0.250113
0.445364 -0.001000 -0.114566 0.001090	0.250227
0.448333 -0.001000 -0.114791 0.001056	0.250258
0.459454 -0.001000 -0.115603 0.000975	0.249100
0.467408 -0.001000 -0.116184 0.000914	0.248296
0.471274 -0.001000 -0.116457 0.000931	0.247994
0.487690 -0.001000 -0.117608 0.001117	0.246794
0.500978 -0.001000 -0.118500 0.001193	0.244931
0.509363 -0.001000 -0.119063 0.001181	0.243535
0.526438 -0.001000 -0.120150 0.000964	0.240977
0.534793 -0.001000 -0.120684 0.000799	0.239662
0.536635 -0.001000 -0.120799 0.000761	0.239556
0.555771 -0.001000 -0.121946 0.000854	0.239521
0.562383 -0.001000 -0.122341 0.000929	0.238491
0.571768 -0.001000 -0.122879 0.000953	0.239876
0.584894 -0.001000 -0.123615 0.000956	0.239710
0.596976 -0.001000 -0.124271 0.000979	0.238479
0.618293 -0.001000 -0.125374 0.001187	0.234953
0.618351 -0.001000 -0.125377 0.001187	0.234943
0.618403 -0.001000 -0.125379 0.001187	0.234935
0.637207 -0.001000 -0.126290 0.000899	0.232157
0.653488 -0.001000 -0.127026 0.000643	0.230849
0.657008 -0.001000 -0.127183 0.000628	0.230535
0.665602 -0.001000 -0.127542 0.000777	0.228275
0.680716 -0.001000 -0.128176 0.001026	0.224644
0.682891 -0.001000 -0.128263 0.001042	0.223992
0.703823 -0.001000 -0.129060 0.001109	0.216926
0.705557 -0.001000 -0.129124 0.001110	0.216384
0.718680 -0.001000 -0.129583 0.000936	0.212773
0.721809 -0.001000 -0.129692 0.000896	0.211918
0.723913 -0.001000 -0.129762 0.000894	0.209503
0.730308 -0.001000 -0.129973 0.000906	0.202028
0.730710 -0.001000 -0.129986 0.000912	0.201493
0.734728 -0.001000 -0.130114 0.000950	0.197814
0.735117 -0.001000 -0.130127 0.000952	0.197906
0.736706 -0.001000 -0.130177 0.000900	0.195891
0.737195 -0.001000 -0.130192 0.000849	0.194920
0.737650 -0.001000 -0.130206 0.000817	0.190994
0.738190 -0.001000 -0.130223 0.000725	0.191862
0.738231 -0.001000 -0.130224 0.000723	0.191690
0.738292 -0.001000 -0.130226 0.000622	0.181186
0.738606 -0.001000 -0.130236 0.000056	0.130307
0.738444 -0.001000 -0.130183 0.000098	0.149487
0.738274 -0.001000 -0.130127 0.000140	0.170426
0.738031 -0.001000 -0.130047 0.000133	0.168936
0.737733 -0.001000 -0.129949 0.000121	0.165901
0.737517 -0.001000 -0.129878 0.000118	0.165283
0.736909 -0.001000 -0.129678 0.000106	0.166839
0.736382 -0.001000 -0.129505 0.000092	0.169565
0.734781 -0.001000 -0.128979 0.000071	0.170270
0.734401 -0.001000 -0.128854 0.000065	0.170388
0.732507 -0.001000 -0.128232 0.000026	0.171567
0.731288 -0.001000 -0.127832 0.000001	0.172357
0.731118 -0.001000 -0.127777 -0.000004	0.172253
0.726827 -0.001000 -0.126372 -0.000075	0.171369
0.726799 -0.001000 -0.126362 -0.000076	0.171359
0.720814 -0.001000 -0.124408 -0.000187	0.168062
0.720476 -0.001000 -0.124298 -0.000191	0.167783
0.709557 -0.001000 -0.120751 -0.000299	0.157751
0.708434 -0.001000 -0.120387 -0.000307	0.156579
0.694348 -0.001000 -0.115845 -0.000355	0.141727
0.693841 -0.001000 -0.115682 -0.000356	0.141184
0.679932 -0.001000 -0.111233 -0.000382	0.126694
0.679368 -0.001000 -0.111053 -0.000384	0.126151
0.674514 -0.001000 -0.109513 -0.000402	0.121766
0.665678 -0.001000 -0.106709 -0.000419	0.113741
0.663165 -0.001000 -0.105917 -0.000427	0.111785
0.652509 -0.001000 -0.102563 -0.000431	0.104336
0.645902 -0.001000 -0.100496 -0.000440	0.100528
0.640051 -0.001000 -0.098665 -0.000446	0.097124
0.635860 -0.001000 -0.097364 -0.000447	0.094877
0.625125 -0.001000 -0.094039 -0.000465	0.089989
0.621207 -0.001000 -0.092831 -0.000460	0.088522
0.607117 -0.001000 -0.088510 -0.000466	0.084777
0.605892 -0.001000 -0.088136 -0.000465	0.084488
0.599552 -0.001000 -0.086209 -0.000469	0.083250
0.592178 -0.001000 -0.083966 -0.000453	0.081782
0.589470 -0.001000 -0.083149 -0.000450	0.081445
0.579278 -0.001000 -0.080073 -0.000396	0.080103
0.566677 -0.001000 -0.076296 -0.000387	0.079744
0.566236 -0.001000 -0.076164 -0.000385	0.079729
0.566076 -0.001000 -0.076116 -0.000385	0.079733
0.552973 -0.001000 -0.072215 -0.000340	0.079783
0.549623 -0.001000 -0.071221 -0.000347	0.079722
0.539732 -0.001000 -0.068298 -0.000359	0.079682
0.537486 -0.001000 -0.067637 -0.000352	0.079688
0.526583 -0.001000 -0.064437 -0.000324	0.079968
0.523771 -0.001000 -0.063616 -0.000325	0.080045
0.508319 -0.001000 -0.059120 -0.000281	0.080855
0.508237 -0.001000 -0.059096 -0.000281	0.080860
0.508144 -0.001000 -0.059069 -0.000281	0.080863
0.491923 -0.001000 -0.054392 -0.000292	0.081392
0.485579 -0.001000 -0.052578 -0.000287	0.081486
0.478198 -0.001000 -0.050469 -0.000277	0.081528
0.469123 -0.001000 -0.047895 -0.000269	0.081663
0.464570 -0.001000 -0.046603 -0.000262	0.081694
0.460718 -0.001000 -0.045520 -0.000261	0.081736
0.453543 -0.001000 -0.043502 -0.000241	0.081863
0.443235 -0.001000 -0.040616 -0.000274	0.082419
0.441153 -0.001000 -0.040035 -0.000277	0.082469
0.431036 -0.001000 -0.037220 -0.000259	0.082704
0.423483 -0.001000 -0.035131 -0.000248	0.082456
0.418455 -0.001000 -0.033743 -0.000247	0.082320
0.408057 -0.001000 -0.030890 -0.000238	0.081828
0.401368 -0.001000 -0.029063 -0.000232	0.081434
0.388045 -0.001000 -0.025453 -0.000240	0.080272
0.386098 -0.001000 -0.024924 -0.000239	0.080113
0.385530 -0.001000 -0.024772 -0.000239	0.080058
0.378099 -0.001000 -0.022783 -0.000243	0.079429
0.368190 -0.001000 -0.020130 -0.000245	0.078576
0.365892 -0.001000 -0.019521 -0.000243	0.078401
0.353277 -0.001000 -0.016185 -0.000211	0.077286
0.342039 -0.001000 -0.013236 -0.000214	0.076406
0.340202 -0.001000 -0.012756 -0.000213	0.076221
0.328533 -0.001000 -0.009719 -0.000207	0.074829
0.317787 -0.001000 -0.006949 -0.000234	0.073526
0.313949 -0.001000 -0.005960 -0.000240	0.073034
0.309569 -0.001000 -0.004844 -0.000242	0.072435
0.300402 -0.001000 -0.002510 -0.000231	0.071120
0.290489 -0.001000 -0.000019 -0.000248	0.069791
0.286118 -0.001000 0.001081 -0.000249	0.069214
0.282021 -0.001000 0.002098 -0.000254	0.068781
0.271296 -0.001000 0.004753 -0.000247	0.067837
0.261209 -0.001000 0.007218 -0.000227	0.066277
0.258101 -0.001000 0.007978 -0.000219	0.065783
0.251813 -0.001000 0.009498 -0.000232	0.065192
0.245521 -0.001000 0.011017 -0.000234	0.064512
0.241073 -0.001000 0.012080 -0.000244	0.064068
0.233321 -0.001000 0.013931 -0.000245	0.063172
0.222047 -0.001000 0.016589 -0.000257	0.061715
0.220123 -0.001000 0.017043 -0.000258	0.061459
0.217358 -0.001000 0.017687 -0.000262	0.061097
0.208030 -0.001000 0.019854 -0.000266	0.059961
0.200885 -0.001000 0.021493 -0.000274	0.058961
0.198038 -0.001000 0.022147 -0.000274	0.058602
0.196664 -0.001000 0.022458 -0.000274	0.058372
0.185942 -0.001000 0.024882 -0.000277	0.056522
0.184903 -0.001000 0.025115 -0.000278	0.056347
0.173171 -0.001000 0.027720 -0.000285	0.054472
0.171949 -0.001000 0.027990 -0.000285	0.054272
0.169443 -0.001000 0.028537 -0.000290	0.053700
0.162832 -0.001000 0.029980 -0.000283	0.052304
0.153809 -0.001000 0.031922 -0.000313	0.049972
0.153138 -0.001000 0.032067 -0.000314	0.049805
0.152888 -0.001000 0.032120 -0.000315	0.049750
0.141950 -0.001000 0.034435 -0.000319	0.047176
0.139494 -0.001000 0.034949 -0.000324	0.046615
0.130193 -0.001000 0.036877 -0.000352	0.043501
0.127817 -0.001000 0.037366 -0.000360	0.042656
0.119270 -0.001000 0.039103 -0.000392	0.039971
0.117669 -0.001000 0.039426 -0.000387	0.039359
0.110719 -0.001000 0.040812 -0.000375	0.036937
0.108171 -0.001000 0.041321 -0.000363	0.036022
0.106717 -0.001000 0.041606 -0.000365	0.035343
0.099495 -0.001000 0.043022 -0.000364	0.031656
0.092673 -0.001000 0.044338 -0.000413	0.028599
0.091826 -0.001000 0.044500 -0.000416	0.028254
0.090022 -0.001000 0.044842 -0.000423	0.027404
0.083619 -0.001000 0.046054 -0.000434	0.024521
0.082916 -0.001000 0.046186 -0.000433	0.024118
0.078970 -0.001000 0.046917 -0.000445	0.021527
0.075489 -0.001000 0.047563 -0.000440	0.019286
0.071603 -0.001000 0.048271 -0.000455	0.016577
0.068434 -0.001000 0.048847 -0.000455	0.014391
0.067770 -0.001000 0.048966 -0.000462	0.013914
0.060172 -0.001000 0.050321 -0.000484	0.007999
0.058269 -0.001000 0.050656 -0.000491	0.006420
0.052084 -0.001000 0.051733 -0.000505	0.000948
0.050203 -0.001000 0.052058 -0.000514	-0.000794
0.044999 -0.001000 0.052946 -0.000571	-0.005972
0.044152 -0.001000 0.053089 -0.000578	-0.006833
0.038593 -0.001000 0.054022 -0.000613	-0.012490
0.037269 -0.001000 0.054242 -0.000615	-0.013924
0.035916 -0.001000 0.054463 -0.000627	-0.015605
0.030081 -0.001000 0.055421 -0.000666	-0.022744
0.029145 -0.001000 0.055571 -0.000680	-0.024084
0.023441 -0.001000 0.056483 -0.000739	-0.032016
0.022749 -0.001000 0.056592 -0.000747	-0.033110
0.017910 -0.001000 0.057349 -0.000764	-0.040895
0.014730 -0.001000 0.057836 -0.000794	-0.046224
0.011432 -0.001000 0.058338 -0.000813	-0.052396
0.006932 -0.001000 0.059010 -0.000883	-0.061452
0.005721 -0.001000 0.059191 -0.000888	-0.064069
0.004465 -0.001000 0.059373 -0.000906	-0.067000
-0.000341 -0.001000 0.060074 -0.000909	-0.078144
-0.003634 -0.001000 0.060542 -0.000931	-0.086344
-0.007565 -0.001000 0.061098 -0.000887	-0.095964
-0.011030 -0.001000 0.061576 -0.000930	-0.104127
-0.014185 -0.001000 0.062009 -0.000944	-0.110923
-0.017633 -0.001000 0.062470 -0.000892	-0.118985
-0.021501 -0.001000 0.062982 -0.000877	-0.128335
-0.025603 -0.001000 0.063507 -0.000803	-0.141918
-0.027957 -0.001000 0.063807 -0.000680	-0.150169
-0.031344 -0.001000 0.064224 -0.000481	-0.160913
-0.032303 -0.001000 0.064345 -0.000357	-0.163437
-0.034964 -0.001000 0.064668 -0.000204	-0.179527
-0.035407 -0.001000 0.064722 -0.000165	-0.181717
-0.035727 -0.001000 0.064761 -0.000094	-0.183246
-0.038329 -0.001000 0.065068 0.000479	-0.202099
-0.039131 -0.001000 0.065164 0.000633	-0.207434
-0.040154 -0.001000 0.065284 0.000764	-0.214889
-0.042938 -0.001000 0.065605 0.001188	-0.235242
-0.045037 -0.001000 0.065845 0.001498	-0.248623
-0.047029 -0.001000 0.066068 0.001668	-0.259466
-0.049589 -0.001000 0.066353 0.001773	-0.273763
-0.050752 -0.001000 0.066480 0.001793	-0.278407
-0.053893 -0.001000 0.066817 0.002173	-0.290572
-0.055377 -0.001000 0.066976 0.002245	-0.296461
-0.057305 -0.001000 0.067175 0.002390	-0.304074
-0.059828 -0.001000 0.067435 0.002441	-0.314870
-0.060406 -0.001000 0.067493 0.002460	-0.316499
-0.062172 -0.001000 0.067667 0.002600	-0.321971
-0.064988 -0.001000 0.067944 0.002602	-0.331017
-0.067749 -0.001000 0.068204 0.002618	-0.340334
-0.069194 -0.001000 0.068340 0.002535	-0.345508
-0.070015 -0.001000 0.068415 0.002567	-0.348451
-0.073422 -0.001000 0.068722 0.002506	-0.361485
-0.076277 -0.001000 0.068971 0.002463	-0.372263
-0.078051 -0.001000 0.069123 0.002451	-0.379125
-0.080559 -0.001000 0.069330 0.002684	-0.388766
-0.082258 -0.001000 0.069471 0.002746	-0.395396
-0.083811 -0.001000 0.069593 0.002788	-0.401770
-0.085863 -0.001000 0.069755 0.002640	-0.410631
-0.088148 -0.001000 0.069926 0.002881	-0.418750
-0.090369 -0.001000 0.070091 0.003001	-0.426592
-0.092352 -0.001000 0.070229 0.002966	-0.432065
-0.094828 -0.001000 0.070401 0.002911	-0.438128
-0.098092 -0.001000 0.070612 0.003115	-0.447784
-0.099474 -0.001000 0.070700 0.003089	-0.452223
-0.104031 -0.001000 0.070971 0.003013	-0.466142
-0.104324 -0.001000 0.070988 0.002997	-0.467212
-0.104665 -0.001000 0.071006 0.003020	-0.468703
-0.109266 -0.001000 0.071252 0.003161	-0.489998
-0.112219 -0.001000 0.071394 0.003341	-0.503070
-0.113479 -0.001000 0.071454 0.003401	-0.508141
-0.115645 -0.001000 0.071547 0.003652	-0.514447
-0.117217 -0.001000 0.071614 0.003713	-0.519085
-0.117503 -0.001000 0.071626 0.003716	-0.520007
-0.117781 -0.001000 0.071637 0.003695	-0.520733
-0.118970 -0.001000 0.071681 0.003728	-0.523472
-0.121440 -0.001000 0.071773 0.003510	-0.530132
-0.123782 -0.001000 0.071850 0.003323	-0.538328
-0.125901 -0.001000 0.071914 0.003391	-0.547810
-0.128906 -0.001000 0.071991 0.003827	-0.562757
-0.130177 -0.001000 0.072021 0.003814	-0.567311
-0.133795 -0.001000 0.072092 0.003975	-0.579649
-0.134083 -0.001000 0.072096 0.004001	-0.580747
-0.137067 -0.001000 0.072137 0.003841	-0.592103
-0.138568 -0.001000 0.072151 0.003963	-0.597838
-0.141125 -0.001000 0.072171 0.003939	-0.606481
-0.142695 -0.001000 0.072176 0.003899	-0.612741
-0.145151 -0.001000 0.072178 0.004262	-0.624117
-0.146893 -0.001000 0.072170 0.004513	-0.631808
-0.148651 -0.001000 0.072159 0.004532	-0.638034
-0.151754 -0.001000 0.072121 0.004642	-0.646746
-0.152185 -0.001000 0.072116 0.004611	-0.647765
-0.152391 -0.001000 0.072112 0.004615	-0.648889
-0.155579 -0.001000 0.072053 0.004566	-0.662493
-0.157630 -0.001000 0.072001 0.004605	-0.671688
-0.158987 -0.001000 0.071966 0.004460	-0.679436
-0.160073 -0.001000 0.071931 0.004393	-0.685394
-0.162474 -0.001000 0.071851 0.004441	-0.698163
-0.163577 -0.001000 0.071808 0.004624	-0.702269
-0.164837 -0.001000 0.071758 0.004783	-0.708227
-0.165824 -0.001000 0.071715 0.004787	-0.712771
-0.166526 -0.001000 0.071683 0.004752	-0.716754
-0.167506 -0.001000 0.071638 0.004977	-0.721863
-0.168453 -0.001000 0.071590 0.005148	-0.724940
-0.168992 -0.001000 0.071562 0.005087	-0.726810
-0.169117 -0.001000 0.071556 0.005085	-0.727175
-0.169763 -0.001000 0.071520 0.005082	-0.729588
-0.170876 -0.001000 0.071459 0.004861	-0.734087
-0.171733 -0.001000 0.071407 0.005001	-0.739625
-0.173271 -0.001000 0.071315 0.004982	-0.749728
-0.175321 -0.001000 0.071179 0.005382	-0.762587
-0.175916 -0.001000 0.071138 0.005327	-0.765083
-0.178270 -0.001000 0.070963 0.005302	-0.774254
-0.178746 -0.001000 0.070925 0.005373	-0.777236
-0.180770 -0.001000 0.070759 0.005377	-0.791173
-0.181553 -0.001000 0.070691 0.005388	-0.795508
-0.182952 -0.001000 0.070565 0.005170	-0.802925
-0.184375 -0.001000 0.070430 0.005737	-0.808310
-0.185082 -0.001000 0.070362 0.005878	-0.812006
-0.187098 -0.001000 0.070153 0.006114	-0.828145
-0.187170 -0.001000 0.070146 0.006128	-0.828634
-0.187322 -0.001000 0.070129 0.006108	-0.829654
-0.189063 -0.001000 0.069939 0.005682	-0.841171
-0.190768 -0.001000 0.069739 0.005992	-0.851665
-0.190936 -0.001000 0.069719 0.006007	-0.852792
-0.190991 -0.001000 0.069712 0.006000	-0.853206
-0.192967 -0.001000 0.069465 0.005872	-0.867156
-0.193130 -0.001000 0.069444 0.005902	-0.867920
-0.194177 -0.001000 0.069305 0.006212	-0.875919
-0.194853 -0.001000 0.069215 0.006279	-0.880887
-0.195489 -0.001000 0.069126 0.006417	-0.885522
-0.196608 -0.001000 0.068968 0.006456	-0.893361
-0.196907 -0.001000 0.068924 0.006401	-0.895839
-0.198324 -0.001000 0.068713 0.006195	-0.903558
-0.199726 -0.001000 0.068494 0.006454	-0.916992
-0.200068 -0.001000 0.068440 0.006455	-0.919984
-0.200405 -0.001000 0.068385 0.006462	-0.923050
-0.201766 -0.001000 0.068159 0.006282	-0.936392
-0.202296 -0.001000 0.068068 0.006290	-0.941936
-0.203543 -0.001000 0.067849 0.006302	-0.955141
-0.203746 -0.001000 0.067813 0.006317	-0.956214
-0.205019 -0.001000 0.067578 0.006633	-0.964346
-0.205089 -0.001000 0.067564 0.006631	-0.965136
-0.206292 -0.001000 0.067334 0.006685	-0.976027
-0.207529 -0.001000 0.067087 0.006578	-0.984461
-0.207583 -0.001000 0.067076 0.006556	-0.984812
-0.207641 -0.001000 0.067064 0.006570	-0.985462
-0.208874 -0.001000 0.066807 0.006540	-0.997804
-0.209289 -0.001000 0.066718 0.006539	-1.002204
-0.210186 -0.001000 0.066522 0.006446	-1.010517
-0.210628 -0.001000 0.066424 0.006516	-1.014109
-0.211492 -0.001000 0.066227 0.006660	-1.020870
-0.211828 -0.001000 0.066150 0.006681	-1.025171
-0.212816 -0.001000 0.065915 0.006529	-1.037458
-0.212922 -0.001000 0.065890 0.006535	-1.038715
-0.213036 -0.001000 0.065862 0.006514	-1.039445
-0.213995 -0.001000 0.065626 0.006551	-1.046752
-0.214704 -0.001000 0.065446 0.007108	-1.054352
-0.214905 -0.001000 0.065395 0.007121	-1.056382
-0.215203 -0.001000 0.065317 0.007255	-1.059160
-0.215876 -0.001000 0.065140 0.007037	-1.066646
-0.216267 -0.001000 0.065034 0.007005	-1.070168
-0.216968 -0.001000 0.064843 0.006952	-1.075685
-0.217780 -0.001000 0.064614 0.007097	-1.084558
-0.218031 -0.001000 0.064543 0.007178	-1.086902
-0.218378 -0.001000 0.064441 0.007120	-1.094721
-0.219020 -0.001000 0.064253 0.006984	-1.109223
-0.219437 -0.001000 0.064127 0.007124	-1.116211
-0.220006 -0.001000 0.063954 0.007113	-1.116036
-0.220574 -0.001000 0.063776 0.007240	-1.116678
-0.220894 -0.001000 0.063675 0.007384	-1.120346
-0.221168 -0.001000 0.063587 0.007325	-1.124366
-0.221782 -0.001000 0.063388 0.007240	-1.131179
-0.222653 -0.001000 0.063096 0.007673	-1.148975
-0.222656 -0.001000 0.063096 0.007673	-1.149014
-0.222659 -0.001000 0.063094 0.007674	-1.149087
-0.223477 -0.001000 0.062812 0.007744	-1.162764
-0.223994 -0.001000 0.062628 0.007637	-1.160781
-0.224315 -0.001000 0.062513 0.007635	-1.167055
-0.224961 -0.001000 0.062275 0.007728	-1.175657
-0.225179 -0.001000 0.062194 0.007737	-1.174572
-0.225936 -0.001000 0.061905 0.007965	-1.191591
-0.225983 -0.001000 0.061887 0.007969	-1.192632
-0.226011 -0.001000 0.061876 0.007978	-1.193132
-0.226683 -0.001000 0.061610 0.007887	-1.204652
-0.227210 -0.001000 0.061396 0.008159	-1.208137
-0.227372 -0.001000 0.061330 0.008145	-1.208782
-0.227555 -0.001000 0.061253 0.008021	-1.214123
-0.228090 -0.001000 0.061029 0.007626	-1.225868
-0.228355 -0.001000 0.060914 0.007474	-1.230651
-0.228840 -0.001000 0.060703 0.007571	-1.230257
-0.229190 -0.001000 0.060548 0.007837	-1.235619
-0.229600 -0.001000 0.060362 0.007743	-1.246380
-0.229930 -0.001000 0.060211 0.007543	-1.250692
-0.230230 -0.001000 0.060070 0.007674	-1.253780
-0.230643 -0.001000 0.059875 0.007823	-1.256518
-0.231047 -0.001000 0.059679 0.007869	-1.264242
-0.231381 -0.001000 0.059514 0.007793	-1.274119
-0.231972 -0.001000 0.059216 0.007698	-1.283436
-0.232105 -0.001000 0.059147 0.007733	-1.282622
-0.232639 -0.001000 0.058867 0.008132	-1.285788
-0.232802 -0.001000 0.058780 0.008241	-1.286192
-0.232821 -0.001000 0.058770 0.008239	-1.286700
-0.233413 -0.001000 0.058447 0.007933	-1.294083
-0.233492 -0.001000 0.058403 0.007966	-1.295380
-0.233928 -0.001000 0.058157 0.008097	-1.299467
-0.234436 -0.001000 0.057862 0.007979	-1.313471
-0.234484 -0.001000 0.057834 0.007962	-1.314287
-0.234524 -0.001000 0.057810 0.007962	-1.315017
-0.234991 -0.001000 0.057529 0.007899	-1.316018
-0.235344 -0.001000 0.057310 0.007913	-1.320624
-0.235435 -0.001000 0.057253 0.007926	-1.320307
-0.235857 -0.001000 0.056984 0.008141	-1.312563
-0.235935 -0.001000 0.056934 0.008173	-1.314787
-0.236311 -0.001000 0.056685 0.008326	-1.325408
-0.236420 -0.001000 0.056614 0.008369	-1.328151
-0.236435 -0.001000 0.056604 0.008377	-1.328334
-0.236956 -0.001000 0.056247 0.008253	-1.320604
-0.237061 -0.001000 0.056172 0.008231	-1.324289
-0.237465 -0.001000 0.055885 0.008118	-1.330631
-0.237672 -0.001000 0.055733 0.008004	-1.327701
-0.237970 -0.001000 0.055512 0.008190	-1.324183
-0.238176 -0.001000 0.055356 0.008285	-1.325226
-0.238496 -0.001000 0.055107 0.008379	-1.331095