TITLE     = "Surface mesh and solution"
VARIABLES = "x"
"y"
"z"
"cfx"
"Cp"
DATASETAUXDATA alpha_deg="  0.0000000E+00"
DATASETAUXDATA beta_deg="  0.0000000E+00"
DATASETAUXDATA bref="  0.7500000"
DATASETAUXDATA cref="   1.000000"
DATASETAUXDATA itranflg="           0"
DATASETAUXDATA ivisc="           2"
DATASETAUXDATA mach="  0.2000000"
DATASETAUXDATA reue_mil="   4.600000"
DATASETAUXDATA sref="  0.7500000"
DATASETAUXDATA tinf_r="   521.0000"
DATASETAUXDATA xmc="  0.0000000E+00"
DATASETAUXDATA ymc="  0.0000000E+00"
DATASETAUXDATA zmc="  0.0000000E+00"
ZONE T="Slice: Y=-0.035"
STRANDID=0, SOLUTIONTIME=0
Nodes=967, Elements=967, ZONETYPE=FELineSeg
DATAPACKING=POINT
DT=(DOUBLE DOUBLE DOUBLE DOUBLE DOUBLE )
-0.246367 -0.035000 0.042191 0.000835	-0.150029
-0.246341 -0.035000 0.042442 0.001069	-0.187877
-0.246314 -0.035000 0.042665 0.001311	-0.222196
-0.246267 -0.035000 0.043006 0.001463	-0.296478
-0.246238 -0.035000 0.043190 0.001506	-0.324310
-0.246202 -0.035000 0.043412 0.001726	-0.361270
-0.246178 -0.035000 0.043543 0.001946	-0.390371
-0.246132 -0.035000 0.043779 0.002148	-0.433291
-0.246103 -0.035000 0.043918 0.002376	-0.453273
-0.246062 -0.035000 0.044108 0.002632	-0.472851
-0.246012 -0.035000 0.044324 0.002653	-0.506842
-0.245971 -0.035000 0.044490 0.002751	-0.529348
-0.245934 -0.035000 0.044639 0.002839	-0.556835
-0.245850 -0.035000 0.044946 0.003155	-0.602497
-0.245842 -0.035000 0.044974 0.003181	-0.607726
-0.245838 -0.035000 0.044988 0.003193	-0.609938
-0.245770 -0.035000 0.045220 0.003320	-0.660811
-0.245716 -0.035000 0.045394 0.003411	-0.697833
-0.245653 -0.035000 0.045588 0.003763	-0.727609
-0.245576 -0.035000 0.045817 0.004165	-0.755900
-0.245483 -0.035000 0.046079 0.004373	-0.785369
-0.245414 -0.035000 0.046267 0.004577	-0.811275
-0.245364 -0.035000 0.046396 0.004718	-0.846677
-0.245268 -0.035000 0.046636 0.004745	-0.898012
-0.245226 -0.035000 0.046737 0.004880	-0.918303
-0.245118 -0.035000 0.046992 0.005110	-0.958075
-0.245057 -0.035000 0.047132 0.005188	-0.978999
-0.244961 -0.035000 0.047341 0.005381	-1.008723
-0.244938 -0.035000 0.047392 0.005418	-1.017449
-0.244908 -0.035000 0.047455 0.005412	-1.027116
-0.244776 -0.035000 0.047729 0.005407	-1.060262
-0.244624 -0.035000 0.048027 0.005798	-1.089189
-0.244616 -0.035000 0.048043 0.005816	-1.091783
-0.244454 -0.035000 0.048346 0.006128	-1.150914
-0.244323 -0.035000 0.048581 0.006017	-1.179384
-0.244282 -0.035000 0.048652 0.006096	-1.185543
-0.244121 -0.035000 0.048927 0.006646	-1.205736
-0.244087 -0.035000 0.048985 0.006666	-1.212857
-0.243992 -0.035000 0.049139 0.006878	-1.231909
-0.243928 -0.035000 0.049243 0.007061	-1.245203
-0.243897 -0.035000 0.049293 0.007098	-1.250164
-0.243785 -0.035000 0.049469 0.007285	-1.274317
-0.243634 -0.035000 0.049698 0.007375	-1.295884
-0.243582 -0.035000 0.049776 0.007403	-1.306193
-0.243565 -0.035000 0.049802 0.007424	-1.308742
-0.243382 -0.035000 0.050068 0.007679	-1.334410
-0.243353 -0.035000 0.050108 0.007688	-1.337647
-0.243232 -0.035000 0.050278 0.007575	-1.351542
-0.243128 -0.035000 0.050421 0.007760	-1.367074
-0.243040 -0.035000 0.050541 0.007997	-1.380446
-0.242944 -0.035000 0.050668 0.008170	-1.402310
-0.242853 -0.035000 0.050787 0.008289	-1.408211
-0.242756 -0.035000 0.050912 0.008320	-1.412029
-0.242654 -0.035000 0.051042 0.008466	-1.422058
-0.242536 -0.035000 0.051189 0.008332	-1.441880
-0.242501 -0.035000 0.051232 0.008381	-1.447067
-0.242394 -0.035000 0.051360 0.008441	-1.452301
-0.242286 -0.035000 0.051492 0.008523	-1.458223
-0.242220 -0.035000 0.051569 0.008545	-1.466501
-0.242063 -0.035000 0.051752 0.008417	-1.484662
-0.241891 -0.035000 0.051948 0.008622	-1.495103
-0.241826 -0.035000 0.052021 0.008784	-1.501078
-0.241737 -0.035000 0.052118 0.008860	-1.504013
-0.241556 -0.035000 0.052316 0.008909	-1.519669
-0.241436 -0.035000 0.052444 0.009025	-1.522343
-0.241250 -0.035000 0.052639 0.008875	-1.533759
-0.241059 -0.035000 0.052834 0.009067	-1.546971
-0.241008 -0.035000 0.052886 0.009176	-1.549398
-0.240972 -0.035000 0.052922 0.009297	-1.551723
-0.240776 -0.035000 0.053116 0.009444	-1.555762
-0.240626 -0.035000 0.053261 0.009006	-1.559888
-0.240485 -0.035000 0.053396 0.008993	-1.558139
-0.240281 -0.035000 0.053588 0.009016	-1.572081
-0.240222 -0.035000 0.053642 0.009100	-1.576545
-0.240142 -0.035000 0.053715 0.009110	-1.580353
-0.240015 -0.035000 0.053831 0.009222	-1.582852
-0.239840 -0.035000 0.053988 0.009153	-1.584060
-0.239806 -0.035000 0.054018 0.009156	-1.584112
-0.239778 -0.035000 0.054043 0.009158	-1.585142
-0.239494 -0.035000 0.054289 0.009344	-1.587515
-0.239247 -0.035000 0.054499 0.009895	-1.600173
-0.239236 -0.035000 0.054509 0.009911	-1.600426
-0.239216 -0.035000 0.054525 0.009915	-1.601473
-0.239002 -0.035000 0.054702 0.009796	-1.607404
-0.238835 -0.035000 0.054838 0.009795	-1.605522
-0.238714 -0.035000 0.054935 0.009902	-1.604043
-0.238582 -0.035000 0.055039 0.009919	-1.596723
-0.238378 -0.035000 0.055200 0.009989	-1.588968
-0.238232 -0.035000 0.055312 0.009990	-1.592549
-0.238048 -0.035000 0.055454 0.009887	-1.594942
-0.237932 -0.035000 0.055540 0.009866	-1.599188
-0.237757 -0.035000 0.055671 0.009907	-1.603262
-0.237547 -0.035000 0.055825 0.010080	-1.597037
-0.237404 -0.035000 0.055929 0.010177	-1.593622
-0.237135 -0.035000 0.056120 0.010094	-1.594702
-0.237048 -0.035000 0.056183 0.009975	-1.593956
-0.237012 -0.035000 0.056207 0.009975	-1.594660
-0.236843 -0.035000 0.056324 0.009875	-1.594560
-0.236594 -0.035000 0.056496 0.009648	-1.591628
-0.236511 -0.035000 0.056552 0.009758	-1.592739
-0.236156 -0.035000 0.056790 0.009784	-1.581396
-0.236152 -0.035000 0.056792 0.009782	-1.581290
-0.236130 -0.035000 0.056806 0.009786	-1.581295
-0.235756 -0.035000 0.057050 0.009824	-1.579412
-0.235505 -0.035000 0.057209 0.009980	-1.574773
-0.235326 -0.035000 0.057322 0.010052	-1.570565
-0.235284 -0.035000 0.057348 0.010067	-1.569407
-0.235048 -0.035000 0.057494 0.010020	-1.570264
-0.234708 -0.035000 0.057700 0.009957	-1.573182
-0.234681 -0.035000 0.057717 0.009940	-1.573889
-0.234229 -0.035000 0.057983 0.009942	-1.577240
-0.234227 -0.035000 0.057984 0.009944	-1.577173
-0.234225 -0.035000 0.057986 0.009943	-1.577082
-0.233752 -0.035000 0.058258 0.009865	-1.550087
-0.233360 -0.035000 0.058477 0.009890	-1.542705
-0.233305 -0.035000 0.058508 0.009909	-1.541448
-0.233227 -0.035000 0.058550 0.009855	-1.540500
-0.232814 -0.035000 0.058774 0.009823	-1.535755
-0.232686 -0.035000 0.058843 0.009574	-1.536363
-0.232396 -0.035000 0.058995 0.009651	-1.533074
-0.232190 -0.035000 0.059104 0.009686	-1.528657
-0.231734 -0.035000 0.059337 0.010082	-1.519696
-0.231726 -0.035000 0.059342 0.010088	-1.519483
-0.231216 -0.035000 0.059596 0.009816	-1.502049
-0.231172 -0.035000 0.059618 0.009808	-1.500485
-0.230741 -0.035000 0.059828 0.009663	-1.488383
-0.230612 -0.035000 0.059890 0.009580	-1.486845
-0.230223 -0.035000 0.060075 0.009338	-1.474384
-0.230058 -0.035000 0.060151 0.009213	-1.474061
-0.229677 -0.035000 0.060328 0.009280	-1.466087
-0.229541 -0.035000 0.060390 0.009273	-1.462029
-0.229017 -0.035000 0.060626 0.009299	-1.462848
-0.228897 -0.035000 0.060679 0.009291	-1.462611
-0.228352 -0.035000 0.060916 0.009177	-1.449165
-0.228069 -0.035000 0.061038 0.009198	-1.440332
-0.227481 -0.035000 0.061284 0.009359	-1.426809
-0.227349 -0.035000 0.061339 0.009419	-1.424169
-0.227259 -0.035000 0.061376 0.009434	-1.422510
-0.226840 -0.035000 0.061546 0.009253	-1.414130
-0.226511 -0.035000 0.061678 0.009159	-1.407684
-0.226381 -0.035000 0.061730 0.009140	-1.403550
-0.225831 -0.035000 0.061945 0.009303	-1.390769
-0.225686 -0.035000 0.062001 0.009265	-1.388779
-0.225315 -0.035000 0.062143 0.009240	-1.381873
-0.225045 -0.035000 0.062244 0.009162	-1.377394
-0.224652 -0.035000 0.062389 0.008889	-1.370499
-0.224495 -0.035000 0.062447 0.008819	-1.366740
-0.224384 -0.035000 0.062488 0.008732	-1.364818
-0.223838 -0.035000 0.062684 0.008692	-1.354569
-0.223522 -0.035000 0.062796 0.008714	-1.349037
-0.223238 -0.035000 0.062895 0.008735	-1.342751
-0.222796 -0.035000 0.063048 0.008650	-1.332944
-0.222478 -0.035000 0.063156 0.008614	-1.329127
-0.222164 -0.035000 0.063261 0.008559	-1.322896
-0.221640 -0.035000 0.063434 0.008392	-1.311993
-0.221422 -0.035000 0.063506 0.008444	-1.306910
-0.221186 -0.035000 0.063582 0.008946	-1.304272
-0.220816 -0.035000 0.063701 0.009442	-1.292616
-0.220455 -0.035000 0.063815 0.009193	-1.287058
-0.220193 -0.035000 0.063897 0.008924	-1.285046
-0.219866 -0.035000 0.063997 0.008679	-1.282152
-0.219481 -0.035000 0.064115 0.008736	-1.278380
-0.219122 -0.035000 0.064222 0.008550	-1.269610
-0.218758 -0.035000 0.064330 0.008253	-1.262287
-0.218040 -0.035000 0.064539 0.007964	-1.246068
-0.217956 -0.035000 0.064563 0.007945	-1.244369
-0.217805 -0.035000 0.064606 0.007916	-1.242156
-0.217137 -0.035000 0.064795 0.007874	-1.232607
-0.216937 -0.035000 0.064851 0.007895	-1.229966
-0.216407 -0.035000 0.064997 0.008081	-1.223933
-0.216309 -0.035000 0.065023 0.008059	-1.222292
-0.215865 -0.035000 0.065143 0.007906	-1.213502
-0.215676 -0.035000 0.065193 0.007944	-1.210355
-0.215261 -0.035000 0.065302 0.007794	-1.206534
-0.215024 -0.035000 0.065364 0.007771	-1.203134
-0.214908 -0.035000 0.065394 0.007798	-1.201994
-0.214133 -0.035000 0.065592 0.007952	-1.193766
-0.213764 -0.035000 0.065684 0.007870	-1.189279
-0.213137 -0.035000 0.065838 0.007793	-1.175443
-0.212818 -0.035000 0.065915 0.007758	-1.170920
-0.212437 -0.035000 0.066006 0.007520	-1.162501
-0.212057 -0.035000 0.066096 0.007331	-1.159285
-0.211933 -0.035000 0.066125 0.007347	-1.158538
-0.211697 -0.035000 0.066179 0.007470	-1.154855
-0.211113 -0.035000 0.066315 0.007726	-1.144673
-0.210631 -0.035000 0.066423 0.007496	-1.136989
-0.210433 -0.035000 0.066468 0.007381	-1.135080
-0.209767 -0.035000 0.066615 0.007739	-1.136295
-0.209740 -0.035000 0.066621 0.007749	-1.136438
-0.209733 -0.035000 0.066623 0.007752	-1.136367
-0.209666 -0.035000 0.066637 0.007733	-1.135622
-0.208839 -0.035000 0.066814 0.007458	-1.125789
-0.208631 -0.035000 0.066858 0.007427	-1.122244
-0.207892 -0.035000 0.067012 0.007158	-1.104108
-0.207011 -0.035000 0.067190 0.007304	-1.091480
-0.206709 -0.035000 0.067251 0.007399	-1.086968
-0.206556 -0.035000 0.067281 0.007444	-1.086175
-0.205777 -0.035000 0.067432 0.007171	-1.077804
-0.205255 -0.035000 0.067533 0.007108	-1.072723
-0.205098 -0.035000 0.067562 0.007088	-1.070032
-0.204499 -0.035000 0.067673 0.007090	-1.063831
-0.203830 -0.035000 0.067797 0.007119	-1.055966
-0.203621 -0.035000 0.067834 0.007124	-1.054064
-0.202652 -0.035000 0.068007 0.007037	-1.048370
-0.202208 -0.035000 0.068083 0.007033	-1.041358
-0.201606 -0.035000 0.068187 0.007041	-1.033003
-0.200628 -0.035000 0.068350 0.006858	-1.023680
-0.200614 -0.035000 0.068352 0.006857	-1.023562
-0.200604 -0.035000 0.068354 0.006857	-1.023471
-0.199606 -0.035000 0.068515 0.006960	-1.013168
-0.199251 -0.035000 0.068570 0.006890	-1.008109
-0.198376 -0.035000 0.068705 0.006844	-0.995225
-0.197990 -0.035000 0.068764 0.006781	-0.991395
-0.197123 -0.035000 0.068893 0.006682	-0.984436
-0.196601 -0.035000 0.068969 0.006787	-0.981711
-0.195862 -0.035000 0.069075 0.006694	-0.976206
-0.195228 -0.035000 0.069163 0.006741	-0.971019
-0.194657 -0.035000 0.069242 0.006894	-0.965538
-0.193763 -0.035000 0.069361 0.006580	-0.955825
-0.193422 -0.035000 0.069406 0.006507	-0.952086
-0.192652 -0.035000 0.069504 0.006514	-0.945971
-0.191937 -0.035000 0.069596 0.006538	-0.938460
-0.191631 -0.035000 0.069634 0.006544	-0.936301
-0.191039 -0.035000 0.069705 0.006637	-0.932536
-0.190137 -0.035000 0.069814 0.006599	-0.925311
-0.189337 -0.035000 0.069907 0.006610	-0.918560
-0.188582 -0.035000 0.069993 0.006693	-0.910989
-0.187602 -0.035000 0.070100 0.006480	-0.904015
-0.186686 -0.035000 0.070197 0.006320	-0.898418
-0.186019 -0.035000 0.070266 0.006201	-0.892366
-0.184520 -0.035000 0.070414 0.006101	-0.880734
-0.184414 -0.035000 0.070425 0.006125	-0.879861
-0.184196 -0.035000 0.070445 0.006121	-0.877734
-0.182718 -0.035000 0.070585 0.006283	-0.862517
-0.181981 -0.035000 0.070652 0.006272	-0.856812
-0.180872 -0.035000 0.070749 0.006174	-0.850555
-0.180298 -0.035000 0.070799 0.006116	-0.846053
-0.179525 -0.035000 0.070862 0.006086	-0.841757
-0.178712 -0.035000 0.070929 0.006132	-0.836392
-0.177332 -0.035000 0.071034 0.006182	-0.830775
-0.176821 -0.035000 0.071073 0.006124	-0.828409
-0.176223 -0.035000 0.071115 0.006132	-0.825254
-0.175218 -0.035000 0.071186 0.006108	-0.818902
-0.174097 -0.035000 0.071260 0.005929	-0.810088
-0.173580 -0.035000 0.071295 0.005821	-0.806243
-0.172239 -0.035000 0.071378 0.005745	-0.795651
-0.171890 -0.035000 0.071400 0.005734	-0.793197
-0.171203 -0.035000 0.071440 0.005731	-0.788642
-0.170082 -0.035000 0.071505 0.005786	-0.781488
-0.169398 -0.035000 0.071541 0.005760	-0.777687
-0.168322 -0.035000 0.071598 0.005816	-0.771902
-0.167225 -0.035000 0.071652 0.005690	-0.767797
-0.166467 -0.035000 0.071687 0.005666	-0.763939
-0.164674 -0.035000 0.071764 0.005589	-0.756699
-0.163573 -0.035000 0.071809 0.005395	-0.750459
-0.162080 -0.035000 0.071864 0.005514	-0.739150
-0.161682 -0.035000 0.071878 0.005552	-0.736507
-0.160740 -0.035000 0.071911 0.005546	-0.729158
-0.159692 -0.035000 0.071943 0.005553	-0.723935
-0.158357 -0.035000 0.071984 0.005522	-0.718004
-0.157084 -0.035000 0.072018 0.005494	-0.712122
-0.155885 -0.035000 0.072048 0.005425	-0.707763
-0.153997 -0.035000 0.072086 0.005315	-0.700334
-0.153259 -0.035000 0.072100 0.005248	-0.697542
-0.151029 -0.035000 0.072132 0.005307	-0.686936
-0.150337 -0.035000 0.072142 0.005276	-0.683802
-0.149995 -0.035000 0.072145 0.005289	-0.681570
-0.147139 -0.035000 0.072171 0.004965	-0.663682
-0.145830 -0.035000 0.072176 0.004996	-0.657615
-0.143704 -0.035000 0.072181 0.005061	-0.650136
-0.142117 -0.035000 0.072178 0.005021	-0.645098
-0.139705 -0.035000 0.072163 0.005022	-0.634948
-0.138502 -0.035000 0.072153 0.004922	-0.629432
-0.137108 -0.035000 0.072139 0.004815	-0.622310
-0.133710 -0.035000 0.072090 0.004765	-0.605239
-0.133496 -0.035000 0.072087 0.004776	-0.604317
-0.133321 -0.035000 0.072084 0.004763	-0.603385
-0.130636 -0.035000 0.072031 0.004835	-0.595547
-0.129754 -0.035000 0.072013 0.004862	-0.593074
-0.129622 -0.035000 0.072010 0.004859	-0.592489
-0.126697 -0.035000 0.071936 0.004778	-0.580945
-0.125216 -0.035000 0.071894 0.004778	-0.576415
-0.123977 -0.035000 0.071856 0.004698	-0.571301
-0.121616 -0.035000 0.071777 0.004723	-0.561338
-0.120739 -0.035000 0.071747 0.004690	-0.558479
-0.119086 -0.035000 0.071684 0.004821	-0.551639
-0.117527 -0.035000 0.071625 0.004773	-0.544723
-0.116110 -0.035000 0.071565 0.004673	-0.539898
-0.114298 -0.035000 0.071490 0.004467	-0.532413
-0.111376 -0.035000 0.071355 0.004403	-0.519767
-0.110657 -0.035000 0.071321 0.004400	-0.516730
-0.110492 -0.035000 0.071314 0.004400	-0.515800
-0.109912 -0.035000 0.071284 0.004365	-0.513344
-0.107224 -0.035000 0.071150 0.004233	-0.502377
-0.105857 -0.035000 0.071078 0.004254	-0.497925
-0.104754 -0.035000 0.071019 0.004260	-0.494868
-0.103288 -0.035000 0.070936 0.004264	-0.490965
-0.102112 -0.035000 0.070869 0.004245	-0.488248
-0.101248 -0.035000 0.070818 0.004217	-0.485691
-0.099064 -0.035000 0.070685 0.004174	-0.479324
-0.097533 -0.035000 0.070586 0.004087	-0.475630
-0.096341 -0.035000 0.070508 0.004032	-0.473111
-0.094390 -0.035000 0.070375 0.004049	-0.467005
-0.093548 -0.035000 0.070318 0.004057	-0.464138
-0.093063 -0.035000 0.070284 0.004050	-0.462243
-0.090581 -0.035000 0.070108 0.004019	-0.451174
-0.089292 -0.035000 0.070013 0.004030	-0.446479
-0.087643 -0.035000 0.069891 0.004000	-0.438899
-0.085400 -0.035000 0.069721 0.004008	-0.428873
-0.084549 -0.035000 0.069656 0.003991	-0.425198
-0.082589 -0.035000 0.069501 0.003951	-0.417846
-0.081635 -0.035000 0.069426 0.003910	-0.414004
-0.080937 -0.035000 0.069369 0.003897	-0.411763
-0.078828 -0.035000 0.069197 0.003872	-0.406279
-0.076660 -0.035000 0.069013 0.003836	-0.401266
-0.076101 -0.035000 0.068966 0.003785	-0.399865
-0.074258 -0.035000 0.068804 0.003834	-0.393833
-0.073810 -0.035000 0.068765 0.003823	-0.392334
-0.073530 -0.035000 0.068740 0.003807	-0.391390
-0.071873 -0.035000 0.068590 0.003583	-0.385767
-0.071330 -0.035000 0.068540 0.003586	-0.384630
-0.069035 -0.035000 0.068328 0.003648	-0.375755
-0.068546 -0.035000 0.068282 0.003644	-0.373664
-0.067734 -0.035000 0.068205 0.003629	-0.371371
-0.065516 -0.035000 0.067993 0.003494	-0.364158
-0.063924 -0.035000 0.067838 0.003487	-0.357572
-0.062190 -0.035000 0.067668 0.003483	-0.351209
-0.059191 -0.035000 0.067367 0.003471	-0.338589
-0.058572 -0.035000 0.067305 0.003449	-0.335162
-0.058226 -0.035000 0.067270 0.003444	-0.333834
-0.054959 -0.035000 0.066934 0.003368	-0.320687
-0.054689 -0.035000 0.066906 0.003367	-0.319913
-0.053648 -0.035000 0.066796 0.003367	-0.316301
-0.051955 -0.035000 0.066618 0.003307	-0.310195
-0.050901 -0.035000 0.066505 0.003352	-0.306784
-0.049824 -0.035000 0.066388 0.003339	-0.303260
-0.047918 -0.035000 0.066180 0.003342	-0.297570
-0.047365 -0.035000 0.066119 0.003327	-0.295805
-0.047123 -0.035000 0.066092 0.003311	-0.294899
-0.044766 -0.035000 0.065826 0.003170	-0.287579
-0.043404 -0.035000 0.065670 0.003102	-0.282927
-0.041915 -0.035000 0.065498 0.002986	-0.278697
-0.039530 -0.035000 0.065220 0.002980	-0.269616
-0.038852 -0.035000 0.065140 0.002955	-0.267171
-0.037672 -0.035000 0.064999 0.002972	-0.263060
-0.036258 -0.035000 0.064831 0.002928	-0.257340
-0.034640 -0.035000 0.064635 0.002906	-0.251065
-0.033218 -0.035000 0.064463 0.002910	-0.245043
-0.031947 -0.035000 0.064306 0.002853	-0.239979
-0.029957 -0.035000 0.064060 0.002766	-0.232274
-0.028521 -0.035000 0.063880 0.002733	-0.226551
-0.025987 -0.035000 0.063560 0.002706	-0.216284
-0.025093 -0.035000 0.063447 0.002697	-0.212547
-0.022205 -0.035000 0.063076 0.002749	-0.201422
-0.022078 -0.035000 0.063060 0.002746	-0.200961
-0.021643 -0.035000 0.063003 0.002731	-0.199585
-0.019118 -0.035000 0.062674 0.002556	-0.189920
-0.016242 -0.035000 0.062293 0.002516	-0.179883
-0.015970 -0.035000 0.062257 0.002515	-0.178752
-0.015663 -0.035000 0.062216 0.002512	-0.177666
-0.012765 -0.035000 0.061826 0.002494	-0.167194
-0.010417 -0.035000 0.061505 0.002473	-0.159640
-0.009836 -0.035000 0.061426 0.002447	-0.157579
-0.008855 -0.035000 0.061289 0.002384	-0.154189
-0.007018 -0.035000 0.061034 0.002240	-0.147672
-0.004497 -0.035000 0.060678 0.002207	-0.140268
-0.004344 -0.035000 0.060656 0.002203	-0.139795
-0.003588 -0.035000 0.060548 0.002183	-0.137047
-0.001572 -0.035000 0.060260 0.002103	-0.129429
-0.000890 -0.035000 0.060162 0.002081	-0.126714
0.001316 -0.035000 0.059842 0.002009	-0.117784
0.003627 -0.035000 0.059505 0.001950	-0.109126
0.003920 -0.035000 0.059462 0.001943	-0.108051
0.005385 -0.035000 0.059246 0.001903	-0.102851
0.007181 -0.035000 0.058980 0.001850	-0.096538
0.007578 -0.035000 0.058921 0.001837	-0.095170
0.010417 -0.035000 0.058496 0.001720	-0.085225
0.013041 -0.035000 0.058098 0.001676	-0.076173
0.013627 -0.035000 0.058009 0.001668	-0.074268
0.014532 -0.035000 0.057870 0.001634	-0.071379
0.017021 -0.035000 0.057488 0.001555	-0.063513
0.019145 -0.035000 0.057158 0.001471	-0.057628
0.020015 -0.035000 0.057023 0.001434	-0.055426
0.022125 -0.035000 0.056693 0.001394	-0.048828
0.023423 -0.035000 0.056489 0.001361	-0.045389
0.026419 -0.035000 0.056015 0.001287	-0.036175
0.027318 -0.035000 0.055872 0.001259	-0.033929
0.029399 -0.035000 0.055539 0.001174	-0.029297
0.030996 -0.035000 0.055280 0.001094	-0.025329
0.033354 -0.035000 0.054899 0.000959	-0.020525
0.034094 -0.035000 0.054778 0.000931	-0.019179
0.037630 -0.035000 0.054197 0.000819	-0.013962
0.037782 -0.035000 0.054172 0.000816	-0.013729
0.037931 -0.035000 0.054146 0.000807	-0.013456
0.038229 -0.035000 0.054097 0.000786	-0.013054
0.040701 -0.035000 0.053683 0.000556	-0.009760
0.041530 -0.035000 0.053546 0.000496	-0.008887
0.042434 -0.035000 0.053392 0.000399	-0.007972
0.043949 -0.035000 0.053136 0.000339	-0.006062
0.045531 -0.035000 0.052867 0.000271	-0.003976
0.046629 -0.035000 0.052680 0.000224	-0.002596
0.048943 -0.035000 0.052280 0.000106	-0.000298
0.051315 -0.035000 0.051874 0.000010	0.001708
0.051893 -0.035000 0.051775 -0.000012	0.002284
0.053297 -0.035000 0.051532 -0.000053	0.003649
0.056968 -0.035000 0.050889 -0.000141	0.007401
0.060534 -0.035000 0.050261 -0.000201	0.010512
0.061739 -0.035000 0.050049 -0.000218	0.011609
0.062620 -0.035000 0.049893 -0.000228	0.012271
0.066592 -0.035000 0.049181 -0.000301	0.015007
0.069029 -0.035000 0.048739 -0.000321	0.016526
0.071070 -0.035000 0.048372 -0.000346	0.017879
0.075385 -0.035000 0.047584 -0.000362	0.020564
0.075458 -0.035000 0.047571 -0.000362	0.020616
0.079727 -0.035000 0.046781 -0.000402	0.023003
0.081115 -0.035000 0.046525 -0.000409	0.023718
0.084712 -0.035000 0.045850 -0.000429	0.025594
0.087749 -0.035000 0.045284 -0.000460	0.026857
0.090621 -0.035000 0.044738 -0.000472	0.028476
0.092732 -0.035000 0.044338 -0.000488	0.029633
0.096622 -0.035000 0.043593 -0.000516	0.031079
0.097910 -0.035000 0.043344 -0.000527	0.031526
0.099368 -0.035000 0.043060 -0.000530	0.032104
0.103323 -0.035000 0.042289 -0.000537	0.033694
0.104161 -0.035000 0.042126 -0.000540	0.034168
0.108763 -0.035000 0.041216 -0.000534	0.036106
0.108970 -0.035000 0.041176 -0.000533	0.036202
0.109970 -0.035000 0.040977 -0.000532	0.036754
0.112812 -0.035000 0.040410 -0.000526	0.038285
0.115389 -0.035000 0.039893 -0.000518	0.039172
0.118398 -0.035000 0.039287 -0.000522	0.040067
0.119265 -0.035000 0.039113 -0.000526	0.040371
0.120030 -0.035000 0.038959 -0.000526	0.040591
0.126025 -0.035000 0.037740 -0.000522	0.042005
0.126098 -0.035000 0.037725 -0.000521	0.042020
0.126135 -0.035000 0.037718 -0.000521	0.042031
0.126198 -0.035000 0.037705 -0.000521	0.042052
0.131653 -0.035000 0.036585 -0.000510	0.043834
0.135018 -0.035000 0.035887 -0.000517	0.045267
0.138121 -0.035000 0.035244 -0.000512	0.045920
0.140816 -0.035000 0.034680 -0.000503	0.046014
0.145809 -0.035000 0.033633 -0.000495	0.046862
0.150337 -0.035000 0.032676 -0.000488	0.047648
0.153096 -0.035000 0.032090 -0.000486	0.048293
0.157240 -0.035000 0.031202 -0.000479	0.049370
0.160716 -0.035000 0.030458 -0.000475	0.050349
0.162583 -0.035000 0.030054 -0.000471	0.050742
0.166448 -0.035000 0.029215 -0.000462	0.051665
0.171877 -0.035000 0.028026 -0.000446	0.053177
0.172929 -0.035000 0.027795 -0.000441	0.053367
0.176785 -0.035000 0.026942 -0.000425	0.054070
0.178954 -0.035000 0.026460 -0.000424	0.054566
0.183238 -0.035000 0.025505 -0.000418	0.055243
0.186116 -0.035000 0.024860 -0.000412	0.055783
0.191446 -0.035000 0.023658 -0.000404	0.056414
0.194772 -0.035000 0.022904 -0.000400	0.056868
0.197194 -0.035000 0.022350 -0.000396	0.057210
0.202231 -0.035000 0.021201 -0.000391	0.057705
0.203349 -0.035000 0.020944 -0.000391	0.057860
0.209608 -0.035000 0.019502 -0.000390	0.058846
0.212317 -0.035000 0.018872 -0.000385	0.059311
0.216650 -0.035000 0.017866 -0.000377	0.060292
0.221368 -0.035000 0.016761 -0.000363	0.060854
0.224129 -0.035000 0.016115 -0.000356	0.061295
0.225386 -0.035000 0.015818 -0.000355	0.061418
0.226574 -0.035000 0.015536 -0.000353	0.061509
0.233424 -0.035000 0.013917 -0.000355	0.062194
0.235671 -0.035000 0.013382 -0.000351	0.062467
0.240077 -0.035000 0.012332 -0.000345	0.063000
0.244019 -0.035000 0.011387 -0.000347	0.063697
0.247458 -0.035000 0.010561 -0.000342	0.063985
0.251129 -0.035000 0.009675 -0.000340	0.064335
0.254378 -0.035000 0.008888 -0.000335	0.064890
0.257729 -0.035000 0.008076 -0.000333	0.065538
0.262600 -0.035000 0.006884 -0.000326	0.066335
0.263988 -0.035000 0.006544 -0.000324	0.066580
0.266484 -0.035000 0.005928 -0.000320	0.066869
0.272686 -0.035000 0.004398 -0.000310	0.067618
0.273936 -0.035000 0.004087 -0.000308	0.067763
0.281642 -0.035000 0.002170 -0.000297	0.068678
0.285930 -0.035000 0.001096 -0.000294	0.069185
0.290034 -0.035000 0.000067 -0.000288	0.069654
0.298052 -0.035000 -0.001956 -0.000280	0.070538
0.300072 -0.035000 -0.002466 -0.000276	0.070744
0.302194 -0.035000 -0.003003 -0.000275	0.070932
0.311307 -0.035000 -0.005323 -0.000266	0.071809
0.313058 -0.035000 -0.005770 -0.000266	0.072017
0.321256 -0.035000 -0.007867 -0.000257	0.072876
0.323136 -0.035000 -0.008347 -0.000255	0.073077
0.323581 -0.035000 -0.008462 -0.000255	0.073120
0.331684 -0.035000 -0.010553 -0.000251	0.074062
0.339988 -0.035000 -0.012710 -0.000229	0.075109
0.340797 -0.035000 -0.012920 -0.000228	0.075219
0.341376 -0.035000 -0.013071 -0.000227	0.075290
0.350813 -0.035000 -0.015541 -0.000222	0.076402
0.357756 -0.035000 -0.017370 -0.000210	0.077100
0.359242 -0.035000 -0.017761 -0.000208	0.077264
0.361249 -0.035000 -0.018294 -0.000205	0.077489
0.368201 -0.035000 -0.020139 -0.000195	0.078363
0.372649 -0.035000 -0.021329 -0.000189	0.078612
0.378719 -0.035000 -0.022951 -0.000183	0.079025
0.385490 -0.035000 -0.024775 -0.000169	0.079587
0.389496 -0.035000 -0.025854 -0.000162	0.079933
0.393380 -0.035000 -0.026908 -0.000157	0.080171
0.401181 -0.035000 -0.029026 -0.000147	0.080785
0.409569 -0.035000 -0.031318 -0.000139	0.081046
0.413230 -0.035000 -0.032321 -0.000135	0.081118
0.423528 -0.035000 -0.035155 -0.000117	0.081324
0.426131 -0.035000 -0.035871 -0.000112	0.081374
0.426988 -0.035000 -0.036109 -0.000111	0.081375
0.441968 -0.035000 -0.040266 -0.000100	0.081253
0.445809 -0.035000 -0.041336 -0.000096	0.081115
0.452675 -0.035000 -0.043258 -0.000092	0.080820
0.464180 -0.035000 -0.046485 -0.000089	0.080246
0.470415 -0.035000 -0.048248 -0.000087	0.080010
0.477814 -0.035000 -0.050358 -0.000087	0.079655
0.485079 -0.035000 -0.052423 -0.000087	0.079321
0.497472 -0.035000 -0.055980 -0.000095	0.078907
0.499343 -0.035000 -0.056519 -0.000095	0.078810
0.509800 -0.035000 -0.059541 -0.000101	0.078149
0.520661 -0.035000 -0.062696 -0.000112	0.077237
0.520799 -0.035000 -0.062736 -0.000113	0.077226
0.520918 -0.035000 -0.062771 -0.000113	0.077217
0.532064 -0.035000 -0.066028 -0.000129	0.076575
0.540372 -0.035000 -0.068472 -0.000149	0.076137
0.543012 -0.035000 -0.069248 -0.000154	0.075982
0.549441 -0.035000 -0.071154 -0.000161	0.075956
0.554918 -0.035000 -0.072778 -0.000169	0.075913
0.556301 -0.035000 -0.073191 -0.000173	0.075863
0.568107 -0.035000 -0.076718 -0.000205	0.075681
0.570021 -0.035000 -0.077294 -0.000206	0.075776
0.580574 -0.035000 -0.080465 -0.000248	0.075709
0.583032 -0.035000 -0.081209 -0.000255	0.075918
0.593323 -0.035000 -0.084321 -0.000270	0.076299
0.596911 -0.035000 -0.085412 -0.000274	0.076798
0.606772 -0.035000 -0.088412 -0.000292	0.078123
0.609106 -0.035000 -0.089126 -0.000296	0.078553
0.612028 -0.035000 -0.090023 -0.000306	0.079230
0.618750 -0.035000 -0.092082 -0.000317	0.080612
0.625016 -0.035000 -0.094013 -0.000325	0.082140
0.627340 -0.035000 -0.094729 -0.000332	0.082706
0.629650 -0.035000 -0.095442 -0.000334	0.083262
0.634804 -0.035000 -0.097038 -0.000335	0.084945
0.638339 -0.035000 -0.098138 -0.000348	0.086948
0.643623 -0.035000 -0.099787 -0.000365	0.089968
0.646314 -0.035000 -0.100637 -0.000367	0.091794
0.652024 -0.035000 -0.102445 -0.000368	0.095366
0.654994 -0.035000 -0.103384 -0.000368	0.097174
0.658535 -0.035000 -0.104510 -0.000369	0.099354
0.663987 -0.035000 -0.106245 -0.000367	0.103085
0.667535 -0.035000 -0.107378 -0.000361	0.105560
0.672963 -0.035000 -0.109109 -0.000351	0.109566
0.676427 -0.035000 -0.110215 -0.000346	0.112075
0.683166 -0.035000 -0.112361 -0.000339	0.117575
0.684578 -0.035000 -0.112812 -0.000335	0.118682
0.686704 -0.035000 -0.113490 -0.000332	0.120478
0.691060 -0.035000 -0.114883 -0.000317	0.124973
0.696503 -0.035000 -0.116621 -0.000306	0.130285
0.698365 -0.035000 -0.117221 -0.000297	0.132242
0.702730 -0.035000 -0.118620 -0.000280	0.136517
0.705666 -0.035000 -0.119562 -0.000263	0.139473
0.709630 -0.035000 -0.120839 -0.000247	0.143577
0.711648 -0.035000 -0.121489 -0.000240	0.145773
0.714539 -0.035000 -0.122419 -0.000212	0.148447
0.717222 -0.035000 -0.123287 -0.000179	0.150557
0.721105 -0.035000 -0.124543 -0.000140	0.153957
0.721140 -0.035000 -0.124554 -0.000139	0.153980
0.724500 -0.035000 -0.125643 -0.000115	0.155856
0.724731 -0.035000 -0.125718 -0.000111	0.155947
0.727854 -0.035000 -0.126733 -0.000060	0.157142
0.728279 -0.035000 -0.126871 -0.000053	0.157310
0.730778 -0.035000 -0.127684 0.000001	0.158225
0.731279 -0.035000 -0.127847 0.000012	0.158132
0.732893 -0.035000 -0.128373 0.000071	0.157061
0.734066 -0.035000 -0.128755 0.000118	0.156354
0.734397 -0.035000 -0.128862 0.000128	0.156226
0.735334 -0.035000 -0.129168 0.000178	0.155438
0.736515 -0.035000 -0.129553 0.000243	0.154344
0.736715 -0.035000 -0.129619 0.000262	0.153633
0.737561 -0.035000 -0.129895 0.000357	0.150858
0.737865 -0.035000 -0.129994 0.000360	0.150275
0.738124 -0.035000 -0.130079 0.000392	0.148736
0.738344 -0.035000 -0.130151 0.000371	0.150001
0.738376 -0.035000 -0.130161 0.000377	0.149196
0.738513 -0.035000 -0.130206 0.000409	0.146938
0.738532 -0.035000 -0.130212 0.000413	0.146283
0.738544 -0.035000 -0.130216 0.000460	0.137074
0.738606 -0.035000 -0.130236 0.000664	0.086089
0.738587 -0.035000 -0.130236 0.000925	0.092539
0.738487 -0.035000 -0.130232 0.002099	0.130729
0.738420 -0.035000 -0.130230 0.002206	0.146127
0.738299 -0.035000 -0.130226 0.002369	0.168869
0.738003 -0.035000 -0.130216 0.002612	0.175603
0.737926 -0.035000 -0.130213 0.002698	0.177739
0.737773 -0.035000 -0.130208 0.002714	0.177993
0.737103 -0.035000 -0.130186 0.002639	0.181910
0.735408 -0.035000 -0.130129 0.002620	0.185645
0.735398 -0.035000 -0.130129 0.002619	0.185686
0.735162 -0.035000 -0.130121 0.002605	0.186221
0.732247 -0.035000 -0.130021 0.002420	0.192943
0.731747 -0.035000 -0.130005 0.002404	0.193551
0.727215 -0.035000 -0.129848 0.002241	0.200808
0.716678 -0.035000 -0.129473 0.002373	0.212051
0.716594 -0.035000 -0.129470 0.002374	0.212174
0.716516 -0.035000 -0.129467 0.002373	0.212252
0.712887 -0.035000 -0.129331 0.002382	0.214490
0.699746 -0.035000 -0.128840 0.002415	0.222634
0.699250 -0.035000 -0.128821 0.002413	0.222824
0.682516 -0.035000 -0.128154 0.002081	0.225019
0.678007 -0.035000 -0.127968 0.002046	0.224911
0.664387 -0.035000 -0.127430 0.002306	0.223554
0.656432 -0.035000 -0.127101 0.002325	0.222487
0.642390 -0.035000 -0.126513 0.002140	0.225012