TITLE     = "Surface mesh and solution"
VARIABLES = "x"
"y"
"z"
"cfx"
"Cp"
ZONE T="Slice: Y=-0.001"
STRANDID=0, SOLUTIONTIME=0
Nodes=1182, Elements=1181, ZONETYPE=FELineSeg
DATAPACKING=POINT
DT=(DOUBLE DOUBLE DOUBLE DOUBLE DOUBLE )
0.4884143500	-0.0009999500	-0.0100784460	0.0008256349	0.2181410800
0.4909419400	-0.0009999500	-0.0105685020	0.0008196337	0.2200025200
0.4934640200	-0.0009999500	-0.0110584410	0.0008124970	0.2218253600
0.4959815400	-0.0009999500	-0.0115484360	0.0008067044	0.2235889700
0.4984949800	-0.0009999500	-0.0120385770	0.0008031717	0.2254221900
0.5010040400	-0.0009999500	-0.0125287970	0.0007980213	0.2272017200
0.5035097000	-0.0009999500	-0.0130192880	0.0007936051	0.2290196900
0.5060129200	-0.0009999500	-0.0135102220	0.0007888030	0.2308249200
0.5085135700	-0.0009999500	-0.0140015850	0.0007835569	0.2326302500
0.5110122600	-0.0009999500	-0.0144934830	0.0007777379	0.2344506800
0.5135094500	-0.0009999500	-0.0149860120	0.0007681917	0.2362421500
0.5160052200	-0.0009999500	-0.0154791740	0.0007564382	0.2380073500
0.5184994900	-0.0009999500	-0.0159729660	0.0007504369	0.2397537700
0.5209919200	-0.0009999500	-0.0164673050	0.0007514585	0.2416087800
0.5234819700	-0.0009999500	-0.0169620910	0.0007459908	0.2434507200
0.5259690900	-0.0009999500	-0.0174572190	0.0007342468	0.2451809500
0.5284517400	-0.0009999500	-0.0179523660	0.0007293459	0.2469608300
0.5309284900	-0.0009999500	-0.0184472480	0.0007270974	0.2487684000
0.5333988100	-0.0009999500	-0.0189417430	0.0007231001	0.2505823400
0.5358602400	-0.0009999500	-0.0194353550	0.0007144999	0.2523871700
0.5383104700	-0.0009999500	-0.0199276130	0.0007039384	0.2540956700
0.5407494900	-0.0009999500	-0.0204185120	0.0006995423	0.2558571700
0.5431751600	-0.0009999500	-0.0209075880	0.0006965547	0.2576417600
0.5455848600	-0.0009999500	-0.0213943180	0.0006911012	0.2594127400
0.5479797100	-0.0009999500	-0.0218788890	0.0006844353	0.2611719100
0.5503585300	-0.0009999500	-0.0223610720	0.0006773045	0.2628838100
0.5527193500	-0.0009999500	-0.0228404350	0.0006708995	0.2646125300
0.5550645000	-0.0009999500	-0.0233174410	0.0006654885	0.2663314600
0.5573940900	-0.0009999500	-0.0237920880	0.0006605877	0.2680505800
0.5597061500	-0.0009999500	-0.0242639720	0.0006528362	0.2697781600
0.5620034900	-0.0009999500	-0.0247336400	0.0006439457	0.2714278700
0.5642876000	-0.0009999500	-0.0252013880	0.0006408263	0.2730951600
0.5665576500	-0.0009999500	-0.0256670300	0.0006395887	0.2748494400
0.5688161800	-0.0009999500	-0.0261310790	0.0006318885	0.2765444500
0.5710646500	-0.0009999500	-0.0265938160	0.0006216245	0.2781522000
0.5733023900	-0.0009999500	-0.0270551090	0.0006173960	0.2798104900
0.5755313600	-0.0009999500	-0.0275153290	0.0006153284	0.2815188200
0.5777526500	-0.0009999500	-0.0279747250	0.0006086521	0.2831926600
0.5799661300	-0.0009999500	-0.0284332500	0.0006013553	0.2848163800
0.5821731100	-0.0009999500	-0.0288911590	0.0005966930	0.2865249800
0.5843742500	-0.0009999500	-0.0293485990	0.0005916771	0.2881872400
0.5865694300	-0.0009999500	-0.0298055240	0.0005886352	0.2898501800
0.5887594800	-0.0009999500	-0.0302621140	0.0005830892	0.2915838400
0.5909448300	-0.0009999500	-0.0307184680	0.0005707899	0.2931738500
0.5931253400	-0.0009999500	-0.0311745270	0.0005627296	0.2948567900
0.5953015100	-0.0009999500	-0.0316304040	0.0005611764	0.2965248200
0.5974733800	-0.0009999500	-0.0320861120	0.0005574019	0.2981836500
0.5996405500	-0.0009999500	-0.0325415510	0.0005516337	0.2999414500
0.6018031200	-0.0009999500	-0.0329967590	0.0005457058	0.3016297800
0.6039605700	-0.0009999500	-0.0334515980	0.0005381707	0.3032888200
0.6061118800	-0.0009999500	-0.0339058600	0.0005311922	0.3049736000
0.6082567000	-0.0009999500	-0.0343594700	0.0005251397	0.3066714700
0.6103929900	-0.0009999500	-0.0348119850	0.0005191918	0.3083604000
0.6125187300	-0.0009999500	-0.0352629800	0.0005131242	0.3100543900
0.6146337400	-0.0009999500	-0.0357123990	0.0005071679	0.3117534800
0.6167341500	-0.0009999500	-0.0361594070	0.0005010978	0.3134436900
0.6188160800	-0.0009999500	-0.0366031640	0.0004947855	0.3151349400
0.6208795900	-0.0009999500	-0.0370436760	0.0004888055	0.3168209800
0.6229203300	-0.0009999500	-0.0374799930	0.0004808574	0.3184911600
0.6249335400	-0.0009999500	-0.0379110650	0.0004721003	0.3201038800
0.6269201000	-0.0009999500	-0.0383370590	0.0004669972	0.3217326100
0.6288744800	-0.0009999500	-0.0387567650	0.0004624265	0.3233898600
0.6307903500	-0.0009999500	-0.0391687900	0.0004559988	0.3249939400
0.6326711200	-0.0009999500	-0.0395738520	0.0004494244	0.3265690500
0.6345141500	-0.0009999500	-0.0399713260	0.0004431000	0.3281192500
0.6363136800	-0.0009999500	-0.0403599480	0.0004372896	0.3296434600
0.6380736200	-0.0009999500	-0.0407405380	0.0004322347	0.3311429300
0.6397914300	-0.0009999500	-0.0411124790	0.0004284340	0.3326155200
0.6414616100	-0.0009999500	-0.0414745840	0.0004267140	0.3340627300
0.6431009200	-0.0009999500	-0.0418304240	0.0004279950	0.3354934200
0.6447323600	-0.0009999500	-0.0421850010	0.0004328126	0.3369158800
0.6463620700	-0.0009999500	-0.0425396260	0.0004407517	0.3383352500
0.6463631400	-0.0009999500	-0.0425398650	0.0004407458	0.3383361700
0.6479894500	-0.0009999500	-0.0428941960	0.0004307946	0.3397414700
0.6496043200	-0.0009999500	-0.0432464520	0.0004222779	0.3411787500
0.6512027400	-0.0009999500	-0.0435955600	0.0004150655	0.3426368500
0.6527857200	-0.0009999500	-0.0439416990	0.0004084057	0.3440940700
0.6543502200	-0.0009999500	-0.0442842100	0.0004016667	0.3455297100
0.6558923100	-0.0009999500	-0.0446222010	0.0003946030	0.3469328600
0.6574134200	-0.0009999500	-0.0449559910	0.0003872317	0.3483054300
0.6589115300	-0.0009999500	-0.0452851170	0.0003797217	0.3496531500
0.6603826900	-0.0009999500	-0.0456086700	0.0003721770	0.3509816500
0.6618278000	-0.0009999500	-0.0459268610	0.0003645383	0.3522932200
0.6632447200	-0.0009999500	-0.0462391750	0.0003568345	0.3535786900
0.6646296400	-0.0009999500	-0.0465447680	0.0003494698	0.3548476100
0.6659853500	-0.0009999500	-0.0468442290	0.0003427529	0.3561032700
0.6673119700	-0.0009999500	-0.0471375730	0.0003361745	0.3573267500
0.6686070000	-0.0009999500	-0.0474242080	0.0003290739	0.3585197900
0.6698733600	-0.0009999500	-0.0477047790	0.0003218279	0.3597044600
0.6711118800	-0.0009999500	-0.0479794370	0.0003151740	0.3608717600
0.6723209600	-0.0009999500	-0.0482478220	0.0003090541	0.3620195700
0.6735037600	-0.0009999500	-0.0485106260	0.0003030640	0.3631448700
0.6746618700	-0.0009999500	-0.0487681660	0.0002969737	0.3642418700
0.6757947800	-0.0009999500	-0.0490203280	0.0002911265	0.3653345700
0.6769058100	-0.0009999500	-0.0492678360	0.0002853985	0.3663994700
0.6779957400	-0.0009999500	-0.0495108440	0.0002793694	0.3674401600
0.6790632000	-0.0009999500	-0.0497490500	0.0002736644	0.3684766300
0.6801109300	-0.0009999500	-0.0499830360	0.0002683185	0.3694922300
0.6811401800	-0.0009999500	-0.0502130870	0.0002627927	0.3704909700
0.6821508400	-0.0009999500	-0.0504391600	0.0002573652	0.3714769500
0.6831450500	-0.0009999500	-0.0506617130	0.0002525089	0.3724576500
0.6841233400	-0.0009999500	-0.0508808870	0.0002480320	0.3734259000
0.6850853600	-0.0009999500	-0.0510965700	0.0002434678	0.3743810400
0.6860330700	-0.0009999500	-0.0513092200	0.0002387558	0.3753265400
0.6869675500	-0.0009999500	-0.0515190360	0.0002338560	0.3762582800
0.6878881500	-0.0009999500	-0.0517258940	0.0002287007	0.3771816200
0.6887968200	-0.0009999500	-0.0519302190	0.0002234907	0.3780966700
0.6896948800	-0.0009999500	-0.0521322970	0.0002185932	0.3790015000
0.6905821000	-0.0009999500	-0.0523320700	0.0002141935	0.3798993800
0.6914596600	-0.0009999500	-0.0525298160	0.0002101324	0.3807937500
0.6923287500	-0.0009999500	-0.0527257880	0.0002056516	0.3816716400
0.6931896200	-0.0009999500	-0.0529200250	0.0002007074	0.3825564700
0.6940429800	-0.0009999500	-0.0531127080	0.0001958833	0.3834271100
0.6948895500	-0.0009999500	-0.0533039790	0.0001911084	0.3842933500
0.6957294900	-0.0009999500	-0.0534938910	0.0001869248	0.3851676600
0.6965637200	-0.0009999500	-0.0536826250	0.0001830811	0.3860242700
0.6973926400	-0.0009999500	-0.0538702940	0.0001787603	0.3868781000
0.6982165000	-0.0009999500	-0.0540569200	0.0001741967	0.3877353400
0.6990358200	-0.0009999500	-0.0542426480	0.0001700256	0.3885989200
0.6998509200	-0.0009999500	-0.0544275420	0.0001661191	0.3894497800
0.7006618400	-0.0009999500	-0.0546116050	0.0001616369	0.3902910400
0.7014690000	-0.0009999500	-0.0547949220	0.0001568867	0.3911422200
0.7022724700	-0.0009999500	-0.0549775290	0.0001525981	0.3919978100
0.7030721900	-0.0009999500	-0.0551593940	0.0001483260	0.3928374600
0.7038683300	-0.0009999500	-0.0553405660	0.0001435548	0.3936772300
0.7046608900	-0.0009999500	-0.0555210370	0.0001389260	0.3945308300
0.7054497000	-0.0009999500	-0.0557007640	0.0001351512	0.3953852400
0.7062348700	-0.0009999500	-0.0558797790	0.0001317849	0.3962246200
0.7070163500	-0.0009999500	-0.0560580530	0.0001279960	0.3970561600
0.7077938300	-0.0009999500	-0.0562355330	0.0001239620	0.3978977200
0.7085676200	-0.0009999500	-0.0564122760	0.0001198044	0.3987360300
0.7093378300	-0.0009999500	-0.0565883220	0.0001153724	0.3995742500
0.7101043500	-0.0009999500	-0.0567636190	0.0001112430	0.4004087200
0.7108673500	-0.0009999500	-0.0569382240	0.0001072886	0.4012345400
0.7116268300	-0.0009999500	-0.0571121310	0.0001031952	0.4020721600
0.7123824400	-0.0009999500	-0.0572852600	0.0000989186	0.4029017700
0.7131344700	-0.0009999500	-0.0574576590	0.0000941582	0.4037224100
0.7138828600	-0.0009999500	-0.0576293470	0.0000892951	0.4045392900
0.7146276200	-0.0009999500	-0.0578002890	0.0000847977	0.4053494300
0.7153689300	-0.0009999500	-0.0579705460	0.0000806692	0.4061628300
0.7161069500	-0.0009999500	-0.0581401550	0.0000768972	0.4069796200
0.7168415800	-0.0009999500	-0.0583090710	0.0000734970	0.4077902700
0.7175728700	-0.0009999500	-0.0584773310	0.0000700205	0.4085896600
0.7183005800	-0.0009999500	-0.0586448610	0.0000662107	0.4093957500
0.7190241800	-0.0009999500	-0.0588115490	0.0000621077	0.4101978500
0.7197438500	-0.0009999500	-0.0589774250	0.0000574462	0.4109911000
0.7204594600	-0.0009999500	-0.0591424670	0.0000528248	0.4117930500
0.7211707800	-0.0009999500	-0.0593066070	0.0000489170	0.4125868700
0.7218778700	-0.0009999500	-0.0594698600	0.0000450462	0.4133664700
0.7225800200	-0.0009999500	-0.0596320700	0.0000407603	0.4141439200
0.7232763800	-0.0009999500	-0.0597930440	0.0000360499	0.4149148500
0.7239671300	-0.0009999500	-0.0599527990	0.0000313771	0.4156916400
0.7246518100	-0.0009999500	-0.0601112400	0.0000274163	0.4164579200
0.7253295800	-0.0009999500	-0.0602681750	0.0000237968	0.4172061700
0.7260001300	-0.0009999500	-0.0604235270	0.0000202489	0.4179499700
0.7266635300	-0.0009999500	-0.0605772990	0.0000168962	0.4186880600
0.7273197200	-0.0009999500	-0.0607294890	0.0000136156	0.4194198000
0.7279687500	-0.0009999500	-0.0608800870	0.0000098708	0.4201401500
0.7286091400	-0.0009999500	-0.0610287640	0.0000053596	0.4208582300
0.7292397600	-0.0009999500	-0.0611752570	0.0000007657	0.4215744700
0.7298612000	-0.0009999500	-0.0613196790	-0.0000032281	0.4222726500
0.7304719100	-0.0009999500	-0.0614616870	-0.0000066829	0.4229509500
0.7310702800	-0.0009999500	-0.0616008860	-0.0000097435	0.4236176900
0.7316567900	-0.0009999500	-0.0617374110	-0.0000126577	0.4242675000
0.7322309600	-0.0009999500	-0.0618711040	-0.0000158264	0.4249017500
0.7327912400	-0.0009999500	-0.0620016460	-0.0000192802	0.4255226000
0.7333373400	-0.0009999500	-0.0621289310	-0.0000231738	0.4261249300
0.7338688400	-0.0009999500	-0.0622528680	-0.0000265632	0.4267282800
0.7343856700	-0.0009999500	-0.0623734410	-0.0000289777	0.4272936300
0.7348880800	-0.0009999500	-0.0624906980	-0.0000325595	0.4278166300
0.7353746900	-0.0009999500	-0.0626043160	-0.0000366738	0.4283624600
0.7358442500	-0.0009999500	-0.0627140030	-0.0000392913	0.4288898100
0.7362973100	-0.0009999500	-0.0628198680	-0.0000420018	0.4293729400
0.7367342100	-0.0009999500	-0.0629220010	-0.0000445756	0.4298576400
0.7371549600	-0.0009999500	-0.0630203860	-0.0000465214	0.4303108800
0.7375621800	-0.0009999500	-0.0631156410	-0.0000548373	0.4307433400
0.7376812700	-0.0009999500	-0.0631434990	-0.0000568593	0.4308802500
0.7380760300	-0.0009999500	-0.0632358790	-0.0000572557	0.4313924900
0.7383129600	-0.0009999500	-0.0632913490	-0.0000556604	0.4316539200
0.7386119400	-0.0009999500	-0.0633613390	-0.0000594503	0.4319409700
0.7390314900	-0.0009999500	-0.0634595980	-0.0000584425	0.4324262700
0.7394004500	-0.0009999500	-0.0635460470	-0.0000629302	0.4327873900
0.7397049700	-0.0009999500	-0.0636174160	-0.0000584792	0.4331486800
0.7399932700	-0.0009999500	-0.0636849700	-0.0000590937	0.4334667600
0.7403124600	-0.0009999500	-0.0637598190	-0.0000591474	0.4338187300
0.7406051200	-0.0009999500	-0.0638284460	-0.0000597531	0.4341546300
0.7407459000	-0.0009999500	-0.0638614670	-0.0000599131	0.4343038800
0.7408987900	-0.0009999500	-0.0638973270	-0.0000617694	0.4344634700
0.7411525800	-0.0009999500	-0.0639568790	-0.0000641790	0.4347293700
0.7414574600	-0.0009999500	-0.0640284270	-0.0000660495	0.4350851800
0.7416178000	-0.0009999500	-0.0640660670	-0.0000667764	0.4352479000
0.7419406800	-0.0009999500	-0.0641418550	-0.0000664079	0.4356105600
0.7420412900	-0.0009999500	-0.0641654880	-0.0000660829	0.4357140400
0.7423317400	-0.0009999500	-0.0642337130	-0.0000699027	0.4360038000
0.7423580300	-0.0009999500	-0.0642398740	-0.0000710035	0.4360281500
0.7423816900	-0.0009999500	-0.0642454330	-0.0000708529	0.4360554800
0.7426540900	-0.0009999500	-0.0643094260	-0.0000654827	0.4363658700
0.7427203700	-0.0009999500	-0.0643249900	-0.0000643560	0.4364422000
0.7430170800	-0.0009999500	-0.0643947120	-0.0000698785	0.4367622100
0.7433635600	-0.0009999500	-0.0644761620	-0.0000710117	0.4371551000
0.7436868000	-0.0009999500	-0.0645521580	-0.0000703379	0.4375286700
0.7439880400	-0.0009999500	-0.0646229980	-0.0000678311	0.4378772700
0.7442801600	-0.0009999500	-0.0646917220	-0.0000660615	0.4381877800
0.7445615500	-0.0009999500	-0.0647579510	-0.0000630381	0.4384896500
0.7446032800	-0.0009999500	-0.0647677630	-0.0000626570	0.4385350900
0.7448352600	-0.0009999500	-0.0648223610	-0.0000613600	0.4387850800
0.7450855400	-0.0009999500	-0.0648812950	-0.0000592261	0.4390574700
0.7453875500	-0.0009999500	-0.0649524030	-0.0000591609	0.4393553400
0.7454608100	-0.0009999500	-0.0649696660	-0.0000575196	0.4394246000
0.7457670000	-0.0009999500	-0.0650417880	-0.0000513521	0.4397406300
0.7460596600	-0.0009999500	-0.0651107500	-0.0000464486	0.4400110500
0.7462558200	-0.0009999500	-0.0651569590	-0.0000417474	0.4401902300
0.7463780600	-0.0009999500	-0.0651857700	-0.0000361738	0.4403149800
0.7464023800	-0.0009999500	-0.0651915070	-0.0000354302	0.4403384300
0.7465168200	-0.0009999500	-0.0652184710	-0.0000317326	0.4404199100
0.7465553300	-0.0009999500	-0.0652275530	-0.0000304970	0.4404481900
0.7467326500	-0.0009999500	-0.0652693510	-0.0000212690	0.4406199800
0.7467767000	-0.0009999500	-0.0652797450	-0.0000180387	0.4406620600
0.7469098600	-0.0009999500	-0.0653111190	0.0000040575	0.4407801600
0.7470032600	-0.0009999500	-0.0653331500	0.0000625208	0.4408122600
0.7470811600	-0.0009999500	-0.0653515090	0.0002842192	0.4401315500
0.7471460100	-0.0009999500	-0.0653668050	0.0005239529	0.4391132000
0.7470794900	-0.0009999500	-0.0653706040	0.0004225837	0.4393871400
0.7469996200	-0.0009999500	-0.0653751640	0.0002180176	0.4400647900
0.7469037800	-0.0009999500	-0.0653806330	0.0001658564	0.4400575500
0.7467659700	-0.0009999500	-0.0653884930	0.0001545796	0.4398843600
0.7466813900	-0.0009999500	-0.0653933210	0.0001546477	0.4397784500
0.7465447200	-0.0009999500	-0.0654011070	0.0001531277	0.4395762700
0.7464374900	-0.0009999500	-0.0654072240	0.0001522755	0.4394115500
0.7463201900	-0.0009999500	-0.0654139070	0.0001521927	0.4392331500
0.7460874300	-0.0009999500	-0.0654271690	0.0001534254	0.4388882200
0.7460292600	-0.0009999500	-0.0654304850	0.0001536570	0.4387859400
0.7458241600	-0.0009999500	-0.0654421600	0.0001543408	0.4384359400
0.7456990500	-0.0009999500	-0.0654492830	0.0001552400	0.4382164500
0.7456277000	-0.0009999500	-0.0654533430	0.0001569646	0.4380878800
0.7455200000	-0.0009999500	-0.0654594670	0.0001579869	0.4378977700
0.7453136400	-0.0009999500	-0.0654711950	0.0001552289	0.4375413100
0.7452442600	-0.0009999500	-0.0654751430	0.0001537241	0.4374038300
0.7450076900	-0.0009999500	-0.0654885770	0.0001630343	0.4370069800
0.7447735700	-0.0009999500	-0.0655018610	0.0001652425	0.4365650100
0.7444941400	-0.0009999500	-0.0655176940	0.0001683746	0.4360605800
0.7444858000	-0.0009999500	-0.0655181710	0.0001683984	0.4360456800
0.7441751400	-0.0009999500	-0.0655357610	0.0001695829	0.4355014000
0.7438514200	-0.0009999500	-0.0655540670	0.0001734195	0.4349273400
0.7435239600	-0.0009999500	-0.0655725750	0.0001778485	0.4343557700
0.7431846900	-0.0009999500	-0.0655917150	0.0001824004	0.4337457400
0.7429478800	-0.0009999500	-0.0656050670	0.0001869757	0.4333341400
0.7428229500	-0.0009999500	-0.0656121080	0.0001891369	0.4331217100
0.7428084600	-0.0009999500	-0.0656129200	0.0001895631	0.4330996900
0.7424430800	-0.0009999500	-0.0656334910	0.0001941516	0.4325083800
0.7423827100	-0.0009999500	-0.0656368810	0.0001949348	0.4324142600
0.7420280600	-0.0009999500	-0.0656568260	0.0001987178	0.4318011400
0.7419036600	-0.0009999500	-0.0656638070	0.0002010055	0.4315975900
0.7415686800	-0.0009999500	-0.0656826120	0.0002119994	0.4310310200
0.7412358500	-0.0009999500	-0.0657012760	0.0002142907	0.4304998800
0.7410777200	-0.0009999500	-0.0657101350	0.0002081352	0.4302475800
0.7409098700	-0.0009999500	-0.0657195370	0.0002172792	0.4299839400
0.7405853300	-0.0009999500	-0.0657376950	0.0002241753	0.4294320600
0.7403102500	-0.0009999500	-0.0657530730	0.0002294296	0.4289931400
0.7401901500	-0.0009999500	-0.0657597850	0.0002339211	0.4287868100
0.7400188400	-0.0009999500	-0.0657693520	0.0002377726	0.4284808900
0.7396605600	-0.0009999500	-0.0657893420	0.0002317779	0.4278960200
0.7393282100	-0.0009999500	-0.0658078640	0.0002385356	0.4273622000
0.7389965700	-0.0009999500	-0.0658263340	0.0002513607	0.4268686500
0.7386294600	-0.0009999500	-0.0658467560	0.0002573127	0.4262785600
0.7381619800	-0.0009999500	-0.0658727210	0.0002507245	0.4255325500
0.7378493500	-0.0009999500	-0.0658900590	0.0002593761	0.4250839100
0.7376110000	-0.0009999500	-0.0659032760	0.0002612592	0.4247108700
0.7371996000	-0.0009999500	-0.0659260450	0.0002681319	0.4239735000
0.7370773600	-0.0009999500	-0.0659328100	0.0002725575	0.4237917700
0.7366518400	-0.0009999500	-0.0659563320	0.0002857737	0.4231963200
0.7362152300	-0.0009999500	-0.0659804270	0.0002871052	0.4225150900
0.7357639100	-0.0009999500	-0.0660052970	0.0002923162	0.4218139600
0.7352978000	-0.0009999500	-0.0660309490	0.0002978424	0.4211545000
0.7348162500	-0.0009999500	-0.0660574060	0.0003025632	0.4204186500
0.7343199300	-0.0009999500	-0.0660846310	0.0003094379	0.4196689400
0.7338090500	-0.0009999500	-0.0661126080	0.0003165814	0.4189257000
0.7332837000	-0.0009999500	-0.0661413220	0.0003233462	0.4181665200
0.7327456500	-0.0009999500	-0.0661706850	0.0003300015	0.4174045000
0.7321963900	-0.0009999500	-0.0662006070	0.0003363335	0.4166249000
0.7316356300	-0.0009999500	-0.0662311020	0.0003422014	0.4158360100
0.7310635400	-0.0009999500	-0.0662621480	0.0003477063	0.4150396300
0.7304806700	-0.0009999500	-0.0662937240	0.0003533107	0.4142352600
0.7298876000	-0.0009999500	-0.0663257910	0.0003590184	0.4134330700
0.7292850600	-0.0009999500	-0.0663583060	0.0003644250	0.4126289800
0.7286734600	-0.0009999500	-0.0663912370	0.0003701896	0.4118055400
0.7280529700	-0.0009999500	-0.0664245860	0.0003767068	0.4109896400
0.7274244400	-0.0009999500	-0.0664582920	0.0003834807	0.4101723400
0.7267882800	-0.0009999500	-0.0664923410	0.0003902317	0.4093467600
0.7261443700	-0.0009999500	-0.0665267330	0.0003964363	0.4085120000
0.7254927800	-0.0009999500	-0.0665614600	0.0004023732	0.4076679100
0.7248334900	-0.0009999500	-0.0665965230	0.0004085582	0.4068295700
0.7241666900	-0.0009999500	-0.0666318980	0.0004144334	0.4059955200
0.7234928600	-0.0009999500	-0.0666675790	0.0004191646	0.4051676700
0.7228121800	-0.0009999500	-0.0667035360	0.0004237549	0.4043136500
0.7221248700	-0.0009999500	-0.0667397600	0.0004295127	0.4034604100
0.7214313700	-0.0009999500	-0.0667762310	0.0004358737	0.4026216600
0.7207315000	-0.0009999500	-0.0668129470	0.0004425875	0.4017804600
0.7200251800	-0.0009999500	-0.0668499170	0.0004488376	0.4009600600
0.7193133800	-0.0009999500	-0.0668870880	0.0004539155	0.4001298200
0.7185965200	-0.0009999500	-0.0669244300	0.0004593617	0.3992714600
0.7178741100	-0.0009999500	-0.0669619740	0.0004659015	0.3984275500
0.7171464000	-0.0009999500	-0.0669997040	0.0004721138	0.3976089400
0.7164134400	-0.0009999500	-0.0670376050	0.0004773481	0.3967729500
0.7156753500	-0.0009999500	-0.0670756850	0.0004824387	0.3959279700
0.7149326800	-0.0009999500	-0.0671139060	0.0004871832	0.3951014600
0.7141853600	-0.0009999500	-0.0671522690	0.0004919578	0.3942579900
0.7134328500	-0.0009999500	-0.0671907960	0.0004975547	0.3934255500
0.7126753900	-0.0009999500	-0.0672294800	0.0005033124	0.3926030400
0.7119129900	-0.0009999500	-0.0672683190	0.0005095531	0.3917639900
0.7111454600	-0.0009999500	-0.0673073230	0.0005163734	0.3909388500
0.7103733400	-0.0009999500	-0.0673464540	0.0005221131	0.3901248000
0.7095968700	-0.0009999500	-0.0673856960	0.0005265186	0.3892910200
0.7088158700	-0.0009999500	-0.0674250720	0.0005314765	0.3884416200
0.7080307000	-0.0009999500	-0.0674645530	0.0005367648	0.3876261100
0.7072412400	-0.0009999500	-0.0675041380	0.0005420018	0.3868114400
0.7064472400	-0.0009999500	-0.0675438490	0.0005469285	0.3860125200
0.7056490800	-0.0009999500	-0.0675836580	0.0005511846	0.3851892100
0.7048468600	-0.0009999500	-0.0676235630	0.0005569400	0.3843478000
0.7040405900	-0.0009999500	-0.0676635580	0.0005633151	0.3835617000
0.7032304400	-0.0009999500	-0.0677036350	0.0005683462	0.3827678600
0.7024166000	-0.0009999500	-0.0677437780	0.0005728292	0.3819570800
0.7015988200	-0.0009999500	-0.0677840110	0.0005766028	0.3811627900
0.7007774100	-0.0009999500	-0.0678243040	0.0005807000	0.3803401600
0.6999523600	-0.0009999500	-0.0678646640	0.0005870495	0.3795269100
0.6991233200	-0.0009999500	-0.0679050980	0.0005931157	0.3787719900
0.6982905900	-0.0009999500	-0.0679456070	0.0005980396	0.3779684600
0.6974541500	-0.0009999500	-0.0679861680	0.0006038153	0.3771598600
0.6966136700	-0.0009999500	-0.0680268180	0.0006087572	0.3763954600
0.6957692500	-0.0009999500	-0.0680675280	0.0006124468	0.3756009300
0.6949211400	-0.0009999500	-0.0681083050	0.0006168996	0.3747967500
0.6940686700	-0.0009999500	-0.0681491720	0.0006216751	0.3740237700
0.6932120900	-0.0009999500	-0.0681901130	0.0006265268	0.3732368600
0.6923512800	-0.0009999500	-0.0682311280	0.0006321540	0.3724556300
0.6914857000	-0.0009999500	-0.0682722550	0.0006376429	0.3716956400
0.6906153000	-0.0009999500	-0.0683134790	0.0006422584	0.3709277500
0.6897395300	-0.0009999500	-0.0683548380	0.0006460140	0.3701570300
0.6888577300	-0.0009999500	-0.0683963520	0.0006502183	0.3693643800
0.6879695700	-0.0009999500	-0.0684380310	0.0006549790	0.3686038600
0.6870740100	-0.0009999500	-0.0684799330	0.0006591634	0.3678367100
0.6861701600	-0.0009999500	-0.0685220880	0.0006637751	0.3670387300
0.6852579700	-0.0009999500	-0.0685644890	0.0006695637	0.3662596300
0.6843347000	-0.0009999500	-0.0686072780	0.0006757547	0.3654977400
0.6833975900	-0.0009999500	-0.0686505590	0.0006806650	0.3647269900
0.6824471400	-0.0009999500	-0.0686943080	0.0006844675	0.3639127000
0.6814823200	-0.0009999500	-0.0687385720	0.0006884941	0.3630933500
0.6805013400	-0.0009999500	-0.0687834250	0.0006935365	0.3622753000
0.6795042800	-0.0009999500	-0.0688288510	0.0006991275	0.3614853000
0.6784883100	-0.0009999500	-0.0688749700	0.0007035882	0.3606864800
0.6774504200	-0.0009999500	-0.0689219160	0.0007075345	0.3598418800
0.6763923800	-0.0009999500	-0.0689695920	0.0007127076	0.3589780900
0.6753114500	-0.0009999500	-0.0690181110	0.0007188853	0.3581352500
0.6742036300	-0.0009999500	-0.0690676420	0.0007245581	0.3572937300
0.6730701900	-0.0009999500	-0.0691181200	0.0007294755	0.3564040400
0.6719088000	-0.0009999500	-0.0691696260	0.0007348308	0.3554921700
0.6707152700	-0.0009999500	-0.0692223310	0.0007413021	0.3545826700
0.6694924800	-0.0009999500	-0.0692761020	0.0007480656	0.3536734300
0.6682376300	-0.0009999500	-0.0693310280	0.0007544207	0.3527257400
0.6669441500	-0.0009999500	-0.0693873760	0.0007606474	0.3517482600
0.6656152000	-0.0009999500	-0.0694449990	0.0007666033	0.3507671400
0.6642457200	-0.0009999500	-0.0695040900	0.0007722570	0.3497642600
0.6628258200	-0.0009999500	-0.0695650430	0.0007782438	0.3487316400
0.6613564500	-0.0009999500	-0.0696277840	0.0007846900	0.3476782100
0.6598305700	-0.0009999500	-0.0696925820	0.0007914007	0.3465926300
0.6582371600	-0.0009999500	-0.0697598530	0.0007982592	0.3454672700
0.6565767500	-0.0009999500	-0.0698295310	0.0008051448	0.3442964900
0.6548379100	-0.0009999500	-0.0699020400	0.0008118863	0.3430720900
0.6530029200	-0.0009999500	-0.0699780430	0.0008181836	0.3417846600
0.6510759600	-0.0009999500	-0.0700573030	0.0008239693	0.3404345800
0.6490380200	-0.0009999500	-0.0701404960	0.0008299648	0.3390274300
0.6468599400	-0.0009999500	-0.0702286960	0.0008374648	0.3375780600
0.6445798300	-0.0009999500	-0.0703202560	0.0008473683	0.3361138400
0.6445775600	-0.0009999500	-0.0703203450	0.0008473777	0.3361123800
0.6422627600	-0.0009999500	-0.0704124790	0.0008288259	0.3346378500
0.6399291800	-0.0009999500	-0.0705045310	0.0008171728	0.3331703800
0.6376031000	-0.0009999500	-0.0705954660	0.0008122149	0.3317149600
0.6352968200	-0.0009999500	-0.0706848060	0.0008125566	0.3302798600
0.6330186700	-0.0009999500	-0.0707722680	0.0008165282	0.3288721100
0.6307643100	-0.0009999500	-0.0708580460	0.0008227229	0.3274948900
0.6285303200	-0.0009999500	-0.0709422980	0.0008298101	0.3261530100
0.6263181000	-0.0009999500	-0.0710249920	0.0008377931	0.3247886600
0.6241233300	-0.0009999500	-0.0711063070	0.0008454572	0.3235138400
0.6219422800	-0.0009999500	-0.0711864010	0.0008517567	0.3222254200
0.6197753000	-0.0009999500	-0.0712652800	0.0008552879	0.3208796400
0.6176187400	-0.0009999500	-0.0713430870	0.0008592019	0.3197125800
0.6154685600	-0.0009999500	-0.0714199690	0.0008694204	0.3185375300
0.6133238700	-0.0009999500	-0.0714959870	0.0008779813	0.3173605500
0.6111829900	-0.0009999500	-0.0715711860	0.0008773817	0.3160506500
0.6090434200	-0.0009999500	-0.0716456700	0.0008787044	0.3148315300
0.6069037900	-0.0009999500	-0.0717194750	0.0008886656	0.3137719600
0.6047634500	-0.0009999500	-0.0717926470	0.0008974264	0.3126184300
0.6026203000	-0.0009999500	-0.0718652380	0.0009021138	0.3114756600
0.6004730500	-0.0009999500	-0.0719373000	0.0009073813	0.3103139700
0.5983215600	-0.0009999500	-0.0720088260	0.0009119511	0.3091549000
0.5961651200	-0.0009999500	-0.0720798450	0.0009163882	0.3080214300
0.5940024300	-0.0009999500	-0.0721503940	0.0009222509	0.3069409100
0.5918338900	-0.0009999500	-0.0722204600	0.0009239328	0.3057965300
0.5896590900	-0.0009999500	-0.0722900410	0.0009239219	0.3046424400
0.5874769700	-0.0009999500	-0.0723591740	0.0009315795	0.3036069600
0.5852879900	-0.0009999500	-0.0724278390	0.0009441958	0.3025442700
0.5830916800	-0.0009999500	-0.0724960420	0.0009524942	0.3014552300
0.5808869000	-0.0009999500	-0.0725638120	0.0009556038	0.3003303400
0.5786742000	-0.0009999500	-0.0726311280	0.0009564418	0.2991452500
0.5764528500	-0.0009999500	-0.0726979970	0.0009602854	0.2981674700
0.5742214900	-0.0009999500	-0.0727644710	0.0009690143	0.2971269500
0.5719807100	-0.0009999500	-0.0728305060	0.0009766927	0.2959737200
0.5697295100	-0.0009999500	-0.0728961300	0.0009818764	0.2949852300
0.5674660800	-0.0009999500	-0.0729613900	0.0009815833	0.2938499700
0.5651911500	-0.0009999500	-0.0730262470	0.0009813989	0.2927081000
0.5629036400	-0.0009999500	-0.0730907250	0.0009907591	0.2917882800
0.5606014100	-0.0009999500	-0.0731548670	0.0010029562	0.2907670100
0.5582857700	-0.0009999500	-0.0732186360	0.0010076920	0.2896060000
0.5559561300	-0.0009999500	-0.0732820260	0.0010086698	0.2885284100
0.5536100900	-0.0009999500	-0.0733450870	0.0010125983	0.2875198700
0.5512492100	-0.0009999500	-0.0734077690	0.0010141641	0.2864212700
0.5488729500	-0.0009999500	-0.0734700710	0.0010184352	0.2854064100
0.5464788700	-0.0009999500	-0.0735320300	0.0010258797	0.2843498300
0.5440695300	-0.0009999500	-0.0735935790	0.0010296998	0.2832671100
0.5416461200	-0.0009999500	-0.0736546670	0.0010374928	0.2822572000
0.5392072200	-0.0009999500	-0.0737153070	0.0010452261	0.2811741500
0.5367551400	-0.0009999500	-0.0737754480	0.0010491291	0.2801080000
0.5342919200	-0.0009999500	-0.0738350080	0.0010554172	0.2790490700
0.5318172000	-0.0009999500	-0.0738939940	0.0010627348	0.2780678900
0.5293332300	-0.0009999500	-0.0739523400	0.0010654074	0.2769358500
0.5268421200	-0.0009999500	-0.0740099920	0.0010684935	0.2759430100
0.5243439700	-0.0009999500	-0.0740669300	0.0010721787	0.2749148300
0.5218403300	-0.0009999500	-0.0741231220	0.0010748265	0.2738131000
0.5193323500	-0.0009999500	-0.0741785320	0.0010829461	0.2728858000
0.5168202500	-0.0009999500	-0.0742331590	0.0010897888	0.2718297800
0.5143044000	-0.0009999500	-0.0742869750	0.0010936977	0.2707988300
0.5117847300	-0.0009999500	-0.0743399930	0.0011001769	0.2697771500
0.5092607700	-0.0009999500	-0.0743922140	0.0011090638	0.2688150100
0.5067324000	-0.0009999500	-0.0744436310	0.0011165053	0.2678485800
0.5041984900	-0.0009999500	-0.0744942650	0.0011198462	0.2667898500
0.5016577200	-0.0009999500	-0.0745441390	0.0011175417	0.2657517800
0.4991100700	-0.0009999500	-0.0745932310	0.0011151438	0.2647698500
0.4965539300	-0.0009999500	-0.0746415850	0.0011241093	0.2638475300
0.4939874100	-0.0009999500	-0.0746892090	0.0011390075	0.2629601100
0.4914111200	-0.0009999500	-0.0747360810	0.0011415584	0.2618523800
0.4888235300	-0.0009999500	-0.0747822230	0.0011408772	0.2608378200
0.4862220300	-0.0009999500	-0.0748276710	0.0011490775	0.2599819300
0.4836080100	-0.0009999500	-0.0748723750	0.0011506446	0.2589172400
0.4809810800	-0.0009999500	-0.0749163260	0.0011511218	0.2579514100