TITLE     = "Surface mesh and solution"
VARIABLES = "x"
"y"
"z"
"cfx"
"Cp"
ZONE T="Slice: Y=-0.001"
STRANDID=0, SOLUTIONTIME=0
Nodes=804, Elements=803, ZONETYPE=FELineSeg
DATAPACKING=POINT
DT=(DOUBLE DOUBLE DOUBLE DOUBLE DOUBLE )
0.5210317400	-0.0009999500	-0.0164752170	0.0007789627	0.2415066500
0.5247649000	-0.0009999500	-0.0172173790	0.0007686380	0.2441768500
0.5284891700	-0.0009999500	-0.0179598440	0.0007597141	0.2468678100
0.5322005200	-0.0009999500	-0.0187017580	0.0007469007	0.2495641000
0.5358938000	-0.0009999500	-0.0194420870	0.0007331547	0.2521847200
0.5395636000	-0.0009999500	-0.0201797150	0.0007294730	0.2548323000
0.5432047800	-0.0009999500	-0.0209135730	0.0007264311	0.2575041900
0.5468132500	-0.0009999500	-0.0216427630	0.0007175875	0.2601185100
0.5503860100	-0.0009999500	-0.0223666430	0.0007081937	0.2627280100
0.5539216400	-0.0009999500	-0.0230848810	0.0006997031	0.2653181900
0.5574205500	-0.0009999500	-0.0237974860	0.0006874432	0.2678908700
0.5608843600	-0.0009999500	-0.0245047510	0.0006746948	0.2704030900
0.5643157400	-0.0009999500	-0.0252071600	0.0006713784	0.2729322900
0.5677178500	-0.0009999500	-0.0259053110	0.0006674612	0.2754946100
0.5710940400	-0.0009999500	-0.0265998690	0.0006583644	0.2779978500
0.5744479300	-0.0009999500	-0.0272915440	0.0006453253	0.2804893900
0.5777828100	-0.0009999500	-0.0279809740	0.0006334195	0.2829617000
0.5811011800	-0.0009999500	-0.0286686610	0.0006256749	0.2854786200
0.5844051200	-0.0009999500	-0.0293550190	0.0006146147	0.2879736100
0.5876964300	-0.0009999500	-0.0300404020	0.0006081477	0.2904531100
0.5909763600	-0.0009999500	-0.0307250510	0.0006033764	0.2929821600
0.5942457300	-0.0009999500	-0.0314091370	0.0005938610	0.2954821300
0.5975049100	-0.0009999500	-0.0320927350	0.0005847612	0.2979926200
0.6007537800	-0.0009999500	-0.0327757890	0.0005760351	0.3005045400
0.6039910900	-0.0009999500	-0.0334580390	0.0005677373	0.3030298100
0.6072143300	-0.0009999500	-0.0341389370	0.0005607761	0.3055718200
0.6104198700	-0.0009999500	-0.0348176960	0.0005498937	0.3081092800
0.6136020400	-0.0009999500	-0.0354930830	0.0005356686	0.3106064200
0.6167537600	-0.0009999500	-0.0361635870	0.0005281183	0.3131288900
0.6198669700	-0.0009999500	-0.0368274260	0.0005216478	0.3156841100
0.6229319000	-0.0009999500	-0.0374824630	0.0005112065	0.3181900700
0.6259381200	-0.0009999500	-0.0381263980	0.0005009500	0.3206568700
0.6288757300	-0.0009999500	-0.0387570340	0.0004907929	0.3230879000
0.6317351500	-0.0009999500	-0.0393721980	0.0004805582	0.3254717300
0.6345085500	-0.0009999500	-0.0399701150	0.0004699650	0.3277989600
0.6371910000	-0.0009999500	-0.0405496100	0.0004589638	0.3300605400
0.6397795100	-0.0009999500	-0.0411099080	0.0004477759	0.3322521700
0.6408692000	-0.0009999500	-0.0413462180	0.0004428112	0.3331771800
0.6422851100	-0.0009999500	-0.0416532790	0.0004390558	0.3343901600
0.6447323600	-0.0009999500	-0.0421850010	0.0004338641	0.3365051200
0.6471750700	-0.0009999500	-0.0427167150	0.0004306130	0.3386249800
0.6495930600	-0.0009999500	-0.0432440080	0.0004285009	0.3407542700
0.6519794500	-0.0009999500	-0.0437653400	0.0004259667	0.3428834700
0.6543261400	-0.0009999500	-0.0442789270	0.0004215986	0.3450036300
0.6566277100	-0.0009999500	-0.0447835290	0.0004148067	0.3470931400
0.6588780300	-0.0009999500	-0.0452777450	0.0004058629	0.3491358800
0.6610707000	-0.0009999500	-0.0457601170	0.0003956351	0.3511288500
0.6632008600	-0.0009999500	-0.0462295040	0.0003850277	0.3530719000
0.6652653200	-0.0009999500	-0.0466851440	0.0003746672	0.3549644400
0.6672623200	-0.0009999500	-0.0471265840	0.0003648193	0.3568061000
0.6691920800	-0.0009999500	-0.0475538040	0.0003554102	0.3585992200
0.6710567500	-0.0009999500	-0.0479672030	0.0003462708	0.3603420600
0.6728592500	-0.0009999500	-0.0483673890	0.0003371772	0.3620370000
0.6746031600	-0.0009999500	-0.0487551020	0.0003278647	0.3636905300
0.6762924200	-0.0009999500	-0.0491311590	0.0003185658	0.3653002700
0.6779311300	-0.0009999500	-0.0494964380	0.0003097623	0.3668798500
0.6795230500	-0.0009999500	-0.0498517190	0.0003014872	0.3684046600
0.6810713400	-0.0009999500	-0.0501976870	0.0002937161	0.3698969500
0.6825793400	-0.0009999500	-0.0505350570	0.0002863233	0.3713669500
0.6840502000	-0.0009999500	-0.0508644950	0.0002784954	0.3727916800
0.6854866100	-0.0009999500	-0.0511865840	0.0002709112	0.3742078800
0.6868915000	-0.0009999500	-0.0515019600	0.0002643395	0.3756021900
0.6882677100	-0.0009999500	-0.0518112220	0.0002578106	0.3769795300
0.6896178700	-0.0009999500	-0.0521149670	0.0002507776	0.3783381300
0.6909447900	-0.0009999500	-0.0524137800	0.0002430571	0.3796729400
0.6922507300	-0.0009999500	-0.0527081820	0.0002350574	0.3810007600
0.6935380700	-0.0009999500	-0.0529986840	0.0002275826	0.3823105700
0.6948090200	-0.0009999500	-0.0532857850	0.0002207510	0.3836106100
0.6960653700	-0.0009999500	-0.0535698640	0.0002142467	0.3848965800
0.6973090200	-0.0009999500	-0.0538513470	0.0002080509	0.3861696100
0.6985415200	-0.0009999500	-0.0541305800	0.0002021874	0.3874459600
0.6997639500	-0.0009999500	-0.0544078090	0.0001961400	0.3887274900
0.7009772700	-0.0009999500	-0.0546832310	0.0001890064	0.3899959300
0.7021821100	-0.0009999500	-0.0549569880	0.0001810856	0.3912558900
0.7033786800	-0.0009999500	-0.0552291350	0.0001739765	0.3925281200
0.7045671900	-0.0009999500	-0.0554996990	0.0001682972	0.3937994800
0.7057476000	-0.0009999500	-0.0557686650	0.0001630073	0.3950631900
0.7069196700	-0.0009999500	-0.0560359990	0.0001570553	0.3963163200
0.7080834500	-0.0009999500	-0.0563016790	0.0001503409	0.3975607200
0.7092387700	-0.0009999500	-0.0565656760	0.0001434350	0.3988010000
0.7103856800	-0.0009999500	-0.0568279920	0.0001371133	0.4000389000
0.7115242500	-0.0009999500	-0.0570886400	0.0001314188	0.4012858600
0.7126546500	-0.0009999500	-0.0573476520	0.0001256021	0.4025266200
0.7137771200	-0.0009999500	-0.0576050800	0.0001188344	0.4037414500
0.7148917300	-0.0009999500	-0.0578609410	0.0001116289	0.4049632000
0.7159985900	-0.0009999500	-0.0581152400	0.0001049609	0.4061800500
0.7170975800	-0.0009999500	-0.0583679600	0.0000986591	0.4073848700
0.7181884600	-0.0009999500	-0.0586190450	0.0000926897	0.4085918400
0.7192709400	-0.0009999500	-0.0588684160	0.0000868025	0.4097867600
0.7203443600	-0.0009999500	-0.0591159090	0.0000808264	0.4109837100
0.7214078300	-0.0009999500	-0.0593613240	0.0000746609	0.4121639400
0.7224604500	-0.0009999500	-0.0596044400	0.0000680114	0.4133389000
0.7235010300	-0.0009999500	-0.0598449820	0.0000612727	0.4145056900
0.7245283100	-0.0009999500	-0.0600826520	0.0000546072	0.4156561800
0.7255412900	-0.0009999500	-0.0603172110	0.0000483898	0.4167922700
0.7265393100	-0.0009999500	-0.0605484990	0.0000425890	0.4179039600
0.7275214800	-0.0009999500	-0.0607762970	0.0000368396	0.4190054800
0.7284859400	-0.0009999500	-0.0610001610	0.0000311255	0.4200919000
0.7294301400	-0.0009999500	-0.0612194870	0.0000251113	0.4211574800
0.7303513300	-0.0009999500	-0.0614336360	0.0000186796	0.4221989200
0.7312468900	-0.0009999500	-0.0616419950	0.0000123444	0.4232170000
0.7321145500	-0.0009999500	-0.0618440020	0.0000062028	0.4241944000
0.7329520600	-0.0009999500	-0.0620391220	0.0000004771	0.4251489600
0.7337573200	-0.0009999500	-0.0622268650	-0.0000044861	0.4260583800
0.7345288400	-0.0009999500	-0.0624068530	-0.0000093816	0.4269221400
0.7352655500	-0.0009999500	-0.0625788420	-0.0000142383	0.4277559200
0.7359671600	-0.0009999500	-0.0627427100	-0.0000188008	0.4285447000
0.7366327600	-0.0009999500	-0.0628982710	-0.0000224097	0.4292941100
0.7372621900	-0.0009999500	-0.0630454570	-0.0000265020	0.4299786100
0.7378327800	-0.0009999500	-0.0631789640	-0.0000360720	0.4306441800
0.7379599200	-0.0009999500	-0.0632087140	-0.0000349793	0.4308055600
0.7387298900	-0.0009999500	-0.0633889660	-0.0000331897	0.4316848500
0.7388817700	-0.0009999500	-0.0634245350	-0.0000333932	0.4318423000
0.7394486700	-0.0009999500	-0.0635573420	-0.0000344669	0.4325159800
0.7399358700	-0.0009999500	-0.0636715290	-0.0000397384	0.4330270300
0.7401503900	-0.0009999500	-0.0637218210	-0.0000417044	0.4332527800
0.7403773100	-0.0009999500	-0.0637750180	-0.0000430490	0.4334965600
0.7407875700	-0.0009999500	-0.0638712270	-0.0000442170	0.4339748900
0.7411823900	-0.0009999500	-0.0639638750	-0.0000441081	0.4343887000
0.7415319700	-0.0009999500	-0.0640459210	-0.0000457017	0.4347697800
0.7418557400	-0.0009999500	-0.0641219090	-0.0000503085	0.4351415300
0.7421875000	-0.0009999500	-0.0641998130	-0.0000503631	0.4354886700
0.7425101400	-0.0009999500	-0.0642755930	-0.0000500995	0.4358136700
0.7427197700	-0.0009999500	-0.0643248480	-0.0000464759	0.4360620700
0.7427669200	-0.0009999500	-0.0643359270	-0.0000457536	0.4361189000
0.7430557600	-0.0009999500	-0.0644038020	-0.0000487346	0.4364284000
0.7432940000	-0.0009999500	-0.0644598080	-0.0000492194	0.4366947400
0.7435972700	-0.0009999500	-0.0645311030	-0.0000487951	0.4370293000
0.7439212200	-0.0009999500	-0.0646072780	-0.0000503074	0.4373885700
0.7440662400	-0.0009999500	-0.0646413940	-0.0000519066	0.4375264000
0.7443794000	-0.0009999500	-0.0647150730	-0.0000498428	0.4378331900
0.7444574800	-0.0009999500	-0.0647334460	-0.0000492429	0.4379096000
0.7447432900	-0.0009999500	-0.0648007090	-0.0000498193	0.4382572800
0.7450521000	-0.0009999500	-0.0648734050	-0.0000492700	0.4385404000
0.7451337000	-0.0009999500	-0.0648926200	-0.0000486188	0.4386245600
0.7454946000	-0.0009999500	-0.0649776160	-0.0000430301	0.4390295400
0.7456244800	-0.0009999500	-0.0650082160	-0.0000416557	0.4391672300
0.7458922300	-0.0009999500	-0.0650712920	-0.0000397275	0.4394239800
0.7459684600	-0.0009999500	-0.0650892410	-0.0000386565	0.4394958300
0.7460763500	-0.0009999500	-0.0651146770	-0.0000352240	0.4396029400
0.7463152400	-0.0009999500	-0.0651709590	-0.0000273084	0.4398563200
0.7464655000	-0.0009999500	-0.0652063790	-0.0000210722	0.4399896600
0.7466095100	-0.0009999500	-0.0652403160	-0.0000141672	0.4401191800
0.7467917200	-0.0009999500	-0.0652832840	0.0000119305	0.4402905400
0.7469319100	-0.0009999500	-0.0653163190	0.0000860510	0.4403722300
0.7470486800	-0.0009999500	-0.0653438570	0.0003280969	0.4395502200
0.7471460100	-0.0009999500	-0.0653668050	0.0005606583	0.4384156200
0.7470461700	-0.0009999500	-0.0653725040	0.0004393214	0.4386976400
0.7469263700	-0.0009999500	-0.0653793440	0.0002243137	0.4393160600
0.7467826000	-0.0009999500	-0.0653875470	0.0001674209	0.4392457000
0.7465884700	-0.0009999500	-0.0653986190	0.0001603488	0.4389554300
0.7464085800	-0.0009999500	-0.0654088780	0.0001649072	0.4387133700
0.7462931900	-0.0009999500	-0.0654154490	0.0001643652	0.4385321700
0.7459397900	-0.0009999500	-0.0654355810	0.0001672366	0.4379513300
0.7459324000	-0.0009999500	-0.0654360060	0.0001672855	0.4379386000
0.7455928900	-0.0009999500	-0.0654553170	0.0001667497	0.4373810900
0.7451805500	-0.0009999500	-0.0654787640	0.0001735040	0.4366955500
0.7448834800	-0.0009999500	-0.0654956180	0.0001793028	0.4361987100
0.7446790900	-0.0009999500	-0.0655072110	0.0001812904	0.4358591400
0.7444368600	-0.0009999500	-0.0655209420	0.0001803141	0.4354300500
0.7442656200	-0.0009999500	-0.0655306350	0.0001828278	0.4351331000
0.7440317900	-0.0009999500	-0.0655438680	0.0001926135	0.4347342000
0.7439643100	-0.0009999500	-0.0655476820	0.0001944893	0.4346363200
0.7435964300	-0.0009999500	-0.0655684770	0.0001973527	0.4339868100
0.7434880100	-0.0009999500	-0.0655745940	0.0001959600	0.4337766200
0.7431832600	-0.0009999500	-0.0655917900	0.0002114223	0.4333052300
0.7431505900	-0.0009999500	-0.0655936380	0.0002119718	0.4332502800
0.7427961800	-0.0009999500	-0.0656136130	0.0002220957	0.4326623700
0.7427260900	-0.0009999500	-0.0656175540	0.0002238573	0.4325406600
0.7425140100	-0.0009999500	-0.0656294900	0.0002243544	0.4321616900
0.7421881600	-0.0009999500	-0.0656478180	0.0002257471	0.4316580900
0.7418808900	-0.0009999500	-0.0656650890	0.0002286626	0.4310949400
0.7415295200	-0.0009999500	-0.0656848100	0.0002287226	0.4304910000
0.7411789900	-0.0009999500	-0.0657044650	0.0002334588	0.4298682200
0.7407884600	-0.0009999500	-0.0657263250	0.0002369641	0.4292242200
0.7403758800	-0.0009999500	-0.0657494070	0.0002457365	0.4284772600
0.7403755800	-0.0009999500	-0.0657494220	0.0002457455	0.4284767200
0.7399248500	-0.0009999500	-0.0657746050	0.0002512793	0.4277561600
0.7394133200	-0.0009999500	-0.0658031260	0.0002617081	0.4270359900
0.7388270500	-0.0009999500	-0.0658357660	0.0002583120	0.4259901900
0.7386763100	-0.0009999500	-0.0658441480	0.0002625947	0.4257568700
0.7379070500	-0.0009999500	-0.0658868630	0.0002688492	0.4245646000
0.7377833100	-0.0009999500	-0.0658937250	0.0002671412	0.4243964600
0.7372162900	-0.0009999500	-0.0659251290	0.0002933471	0.4234899600
0.7365855000	-0.0009999500	-0.0659599970	0.0003006892	0.4225369100
0.7359205500	-0.0009999500	-0.0659966770	0.0003085517	0.4215325100
0.7352223400	-0.0009999500	-0.0660350990	0.0003167158	0.4204815300
0.7344917700	-0.0009999500	-0.0660752130	0.0003251137	0.4193592100
0.7337296000	-0.0009999500	-0.0661169510	0.0003343892	0.4182407300
0.7329374600	-0.0009999500	-0.0661602320	0.0003431586	0.4171196200
0.7321173000	-0.0009999500	-0.0662049130	0.0003534553	0.4159285100
0.7312711500	-0.0009999500	-0.0662508900	0.0003638869	0.4147911400
0.7304006200	-0.0009999500	-0.0662980530	0.0003715153	0.4135854500
0.7295074500	-0.0009999500	-0.0663463100	0.0003789859	0.4123205200
0.7285933500	-0.0009999500	-0.0663955510	0.0003880447	0.4110820900
0.7276598200	-0.0009999500	-0.0664456780	0.0003987654	0.4098686600
0.7267082900	-0.0009999500	-0.0664966180	0.0004092266	0.4086701300
0.7257396600	-0.0009999500	-0.0665483100	0.0004180986	0.4074139000
0.7247544500	-0.0009999500	-0.0666007180	0.0004266821	0.4061375000
0.7237531500	-0.0009999500	-0.0666538030	0.0004362598	0.4048681300
0.7227363000	-0.0009999500	-0.0667075370	0.0004461468	0.4036368700
0.7217045400	-0.0009999500	-0.0667618740	0.0004545977	0.4023826400
0.7206586600	-0.0009999500	-0.0668167620	0.0004626468	0.4010938700
0.7195992500	-0.0009999500	-0.0668721720	0.0004705327	0.3998593400
0.7185270800	-0.0009999500	-0.0669280440	0.0004772520	0.3986151500
0.7174426900	-0.0009999500	-0.0669843480	0.0004840674	0.3973390500
0.7163466200	-0.0009999500	-0.0670410540	0.0004928189	0.3960652900
0.7152392300	-0.0009999500	-0.0670981410	0.0005028418	0.3948438500
0.7141207500	-0.0009999500	-0.0671555770	0.0005120776	0.3936192700
0.7129912400	-0.0009999500	-0.0672133640	0.0005205772	0.3923627100
0.7118508800	-0.0009999500	-0.0672714780	0.0005284263	0.3911213600
0.7106998600	-0.0009999500	-0.0673299130	0.0005349757	0.3898868600
0.7095383400	-0.0009999500	-0.0673886540	0.0005415559	0.3886328000
0.7083665100	-0.0009999500	-0.0674476770	0.0005500725	0.3874042000
0.7071846700	-0.0009999500	-0.0675069760	0.0005597455	0.3862139600
0.7059932400	-0.0009999500	-0.0675665070	0.0005681794	0.3850071700
0.7047926800	-0.0009999500	-0.0676262530	0.0005748327	0.3837660800
0.7035833000	-0.0009999500	-0.0676861930	0.0005810767	0.3825439500
0.7023653400	-0.0009999500	-0.0677463040	0.0005883073	0.3813441400
0.7011389700	-0.0009999500	-0.0678065790	0.0005961602	0.3801656400
0.6999043200	-0.0009999500	-0.0678670110	0.0006030964	0.3789818900
0.6986612100	-0.0009999500	-0.0679275920	0.0006110558	0.3777661300
0.6974095700	-0.0009999500	-0.0679883290	0.0006201946	0.3766172500
0.6961492300	-0.0009999500	-0.0680492220	0.0006265281	0.3754623200
0.6948800700	-0.0009999500	-0.0681102800	0.0006313597	0.3742458800
0.6936016700	-0.0009999500	-0.0681715090	0.0006383847	0.3730763500
0.6923135500	-0.0009999500	-0.0682329310	0.0006459054	0.3719656200
0.6910148900	-0.0009999500	-0.0682945700	0.0006526244	0.3707816300
0.6897043600	-0.0009999500	-0.0683564920	0.0006603160	0.3696055700
0.6883800600	-0.0009999500	-0.0684187860	0.0006672784	0.3684903100
0.6870399100	-0.0009999500	-0.0684815270	0.0006731653	0.3672919900
0.6856805100	-0.0009999500	-0.0685448650	0.0006802700	0.3661221900
0.6842983400	-0.0009999500	-0.0686089620	0.0006878657	0.3649905000
0.6828889800	-0.0009999500	-0.0686739910	0.0006956535	0.3638012100
0.6814478600	-0.0009999500	-0.0687401520	0.0007034501	0.3626146900
0.6799702000	-0.0009999500	-0.0688076390	0.0007107537	0.3614029900
0.6784513000	-0.0009999500	-0.0688766460	0.0007185350	0.3601602900
0.6768865600	-0.0009999500	-0.0689473450	0.0007266267	0.3589200100
0.6752710900	-0.0009999500	-0.0690199210	0.0007339228	0.3576490900
0.6736003200	-0.0009999500	-0.0690945390	0.0007404290	0.3563378200
0.6718692800	-0.0009999500	-0.0691713770	0.0007470626	0.3550015400
0.6700719600	-0.0009999500	-0.0692506510	0.0007544593	0.3536373700
0.6682016300	-0.0009999500	-0.0693325920	0.0007625377	0.3522294500
0.6662502900	-0.0009999500	-0.0694174990	0.0007709581	0.3507756300
0.6642074600	-0.0009999500	-0.0695057360	0.0007794283	0.3492686700
0.6620593100	-0.0009999500	-0.0695978110	0.0007876554	0.3476984800
0.6597890300	-0.0009999500	-0.0696943330	0.0007949569	0.3460528900
0.6573766500	-0.0009999500	-0.0697960180	0.0008000797	0.3443200000
0.6547966000	-0.0009999500	-0.0699037540	0.0008016303	0.3424899000
0.6520150900	-0.0009999500	-0.0700187460	0.0007993540	0.3405540000
0.6489948600	-0.0009999500	-0.0701422470	0.0007951075	0.3385113500
0.6457350300	-0.0009999500	-0.0702739730	0.0007919515	0.3363689800
0.6422627600	-0.0009999500	-0.0704124790	0.0007922016	0.3341636400
0.6387624700	-0.0009999500	-0.0705502410	0.0007966022	0.3319655100
0.6368072600	-0.0009999500	-0.0706261550	0.0008007388	0.3307519900
0.6353025400	-0.0009999500	-0.0706845820	0.0008076298	0.3298245700
0.6318917900	-0.0009999500	-0.0708152430	0.0008230770	0.3277487500
0.6285322300	-0.0009999500	-0.0709422310	0.0008377683	0.3257308900
0.6252171400	-0.0009999500	-0.0710658730	0.0008512667	0.3237690000
0.6219384700	-0.0009999500	-0.0711865430	0.0008634265	0.3218668100
0.6186884000	-0.0009999500	-0.0713045750	0.0008736430	0.3199502800
0.6154585500	-0.0009999500	-0.0714203270	0.0008833372	0.3181399400
0.6122414500	-0.0009999500	-0.0715340900	0.0008935395	0.3164044000
0.6090304300	-0.0009999500	-0.0716461170	0.0008970011	0.3144947300
0.6058198200	-0.0009999500	-0.0717566160	0.0009013406	0.3127922700
0.6026049900	-0.0009999500	-0.0718657520	0.0009121873	0.3111780600
0.5993821600	-0.0009999500	-0.0719736520	0.0009221199	0.3094280100
0.5961487300	-0.0009999500	-0.0720803890	0.0009371683	0.3077510600
0.5929026600	-0.0009999500	-0.0721860160	0.0009419705	0.3059928100
0.5896424700	-0.0009999500	-0.0722905700	0.0009414033	0.3043351800
0.5863667700	-0.0009999500	-0.0723940800	0.0009557667	0.3027439400
0.5830744500	-0.0009999500	-0.0724965710	0.0009690918	0.3010946500
0.5797642500	-0.0009999500	-0.0725980480	0.0009766525	0.2994893800
0.5764346100	-0.0009999500	-0.0726985480	0.0009773961	0.2977791400
0.5730838200	-0.0009999500	-0.0727980880	0.0009795348	0.2962140100
0.5697099000	-0.0009999500	-0.0728966970	0.0009883929	0.2946522800
0.5663104100	-0.0009999500	-0.0729944260	0.0009954114	0.2930213800
0.5628830800	-0.0009999500	-0.0730912980	0.0010092815	0.2914778600
0.5594255900	-0.0009999500	-0.0731873440	0.0010229753	0.2898566100
0.5559356800	-0.0009999500	-0.0732825770	0.0010312142	0.2882909200
0.5524113800	-0.0009999500	-0.0733770130	0.0010340880	0.2866559900
0.5488516700	-0.0009999500	-0.0734706220	0.0010353547	0.2850541200
0.5452564400	-0.0009999500	-0.0735633600	0.0010502976	0.2835441200
0.5416267500	-0.0009999500	-0.0736551510	0.0010648336	0.2819638600
0.5379650000	-0.0009999500	-0.0737458770	0.0010629224	0.2803045500
0.5342748200	-0.0009999500	-0.0738354180	0.0010664466	0.2787928000
0.5305606100	-0.0009999500	-0.0739236180	0.0010766240	0.2772424500
0.5268271600	-0.0009999500	-0.0740103350	0.0010829467	0.2756295800
0.5230786800	-0.0009999500	-0.0740954350	0.0010987833	0.2741546900
0.5193187000	-0.0009999500	-0.0741788300	0.0011132320	0.2726186500
0.5155493600	-0.0009999500	-0.0742604510	0.0011109729	0.2710134700
0.5117711400	-0.0009999500	-0.0743402760	0.0011066836	0.2694780800
0.5079833900	-0.0009999500	-0.0744182990	0.0011199757	0.2681048200
0.5041838900	-0.0009999500	-0.0744945560	0.0011321320	0.2665527800
0.5003697900	-0.0009999500	-0.0745690690	0.0011391137	0.2650704400
0.4965376600	-0.0009999500	-0.0746418910	0.0011470018	0.2636072000
0.4926838600	-0.0009999500	-0.0747130440	0.0011519892	0.2621018300
0.4888050000	-0.0009999500	-0.0747825500	0.0011656893	0.2607067200
0.4848982400	-0.0009999500	-0.0748504250	0.0011772302	0.2592175000
0.4809618000	-0.0009999500	-0.0749166460	0.0011827744	0.2577513200
0.4769949600	-0.0009999500	-0.0749811680	0.0011915963	0.2563118300
0.4729985600	-0.0009999500	-0.0750439240	0.0012019831	0.2549184900
0.4689751900	-0.0009999500	-0.0751048100	0.0012101130	0.2534833800
0.4649294000	-0.0009999500	-0.0751637220	0.0012100432	0.2519881400
0.4608667800	-0.0009999500	-0.0752205250	0.0012137410	0.2505870200
0.4567936100	-0.0009999500	-0.0752751160	0.0012321538	0.2492254200
0.4527168900	-0.0009999500	-0.0753273740	0.0012453366	0.2477811000
0.4486441300	-0.0009999500	-0.0753771890	0.0012505028	0.2464084500
0.4445819600	-0.0009999500	-0.0754244920	0.0012563467	0.2450007600
0.4405350100	-0.0009999500	-0.0754692410	0.0012625399	0.2436408800
0.4365063300	-0.0009999500	-0.0755114110	0.0012640494	0.2423653600
0.4324971100	-0.0009999500	-0.0755510260	0.0012681331	0.2410322100
0.4285067000	-0.0009999500	-0.0755881070	0.0012861310	0.2397719600
0.4245331000	-0.0009999500	-0.0756226930	0.0013002308	0.2384806400
0.4205735300	-0.0009999500	-0.0756548350	0.0013002618	0.2371468200
0.4166247500	-0.0009999500	-0.0756845620	0.0013031381	0.2360159800
0.4126833100	-0.0009999500	-0.0757118990	0.0013105932	0.2347572300
0.4087458000	-0.0009999500	-0.0757368730	0.0013111289	0.2334477900
0.4048094500	-0.0009999500	-0.0757594850	0.0013211342	0.2323558200
0.4008724700	-0.0009999500	-0.0757797430	0.0013435569	0.2312214100
0.3969341200	-0.0009999500	-0.0757976250	0.0013463945	0.2299272000
0.3929943700	-0.0009999500	-0.0758131220	0.0013447052	0.2287574000
0.3890538800	-0.0009999500	-0.0758262130	0.0013635916	0.2277141800
0.3851136300	-0.0009999500	-0.0758368750	0.0013804355	0.2265765800
0.3811744700	-0.0009999500	-0.0758450850	0.0013901060	0.2254912700
0.3772365700	-0.0009999500	-0.0758508370	0.0013899767	0.2242940400
0.3732991500	-0.0009999500	-0.0758541080	0.0013840936	0.2231791800
0.3693604500	-0.0009999500	-0.0758548900	0.0013963236	0.2222303200
0.3654176300	-0.0009999500	-0.0758531540	0.0014189373	0.2211827900
0.3614671200	-0.0009999500	-0.0758488700	0.0014310153	0.2200790300
0.3575047000	-0.0009999500	-0.0758420010	0.0014378920	0.2190287700
0.3535254000	-0.0009999500	-0.0758324710	0.0014472248	0.2180399300
0.3495244400	-0.0009999500	-0.0758202220	0.0014549693	0.2170045400
0.3454980900	-0.0009999500	-0.0758051720	0.0014643376	0.2159697300
0.3414437500	-0.0009999500	-0.0757872240	0.0014786462	0.2150592200
0.3373599900	-0.0009999500	-0.0757662950	0.0014808366	0.2139992700
0.3332473000	-0.0009999500	-0.0757423040	0.0014752796	0.2129386800
0.3291077300	-0.0009999500	-0.0757151690	0.0014901114	0.2120944400
0.3249447900	-0.0009999500	-0.0756848310	0.0015146827	0.2111502300
0.3207638300	-0.0009999500	-0.0756512510	0.0015256228	0.2100889800
0.3165715600	-0.0009999500	-0.0756144150	0.0015304195	0.2091358300
0.3123748000	-0.0009999500	-0.0755743380	0.0015399236	0.2082526400
0.3081809600	-0.0009999500	-0.0755310580	0.0015524009	0.2073753800
0.3039967400	-0.0009999500	-0.0754846260	0.0015545842	0.2064560700
0.2998270100	-0.0009999500	-0.0754350870	0.0015504493	0.2055576100
0.2956748300	-0.0009999500	-0.0753824790	0.0015662417	0.2047863900
0.2915410400	-0.0009999500	-0.0753268230	0.0015927005	0.2040111300
0.2874242400	-0.0009999500	-0.0752681050	0.0016048400	0.2031441500
0.2833213200	-0.0009999500	-0.0752062720	0.0016002980	0.2022429100
0.2792276100	-0.0009999500	-0.0751412510	0.0016038632	0.2015763400
0.2751381400	-0.0009999500	-0.0750729520	0.0016248588	0.2008758300
0.2710487800	-0.0009999500	-0.0750012620	0.0016421942	0.2000946700
0.2669563000	-0.0009999500	-0.0749260930	0.0016514880	0.1993957000
0.2628587800	-0.0009999500	-0.0748473480	0.0016483093	0.1986163900
0.2587565200	-0.0009999500	-0.0747649820	0.0016520342	0.1980021600
0.2546520800	-0.0009999500	-0.0746789950	0.0016765287	0.1974391600
0.2505503900	-0.0009999500	-0.0745894540	0.0016913323	0.1967162300
0.2464581700	-0.0009999500	-0.0744964630	0.0016970206	0.1960628200
0.2423823800	-0.0009999500	-0.0744001870	0.0017078868	0.1955276400
0.2383295600	-0.0009999500	-0.0743007880	0.0017081887	0.1948874400
0.2343055300	-0.0009999500	-0.0741984250	0.0017113855	0.1943727100
0.2303142400	-0.0009999500	-0.0740932450	0.0017330989	0.1939153700
0.2263569700	-0.0009999500	-0.0739853230	0.0017482033	0.1933468600
0.2224325200	-0.0009999500	-0.0738746820	0.0017552785	0.1928557900
0.2185392200	-0.0009999500	-0.0737612990	0.0017660677	0.1923995800
0.2146772700	-0.0009999500	-0.0736452490	0.0017786053	0.1920365700
0.2108414900	-0.0009999500	-0.0735263900	0.0017752032	0.1915102500
0.2070213700	-0.0009999500	-0.0734044310	0.0017766340	0.1911120400
0.2032035700	-0.0009999500	-0.0732789190	0.0018025265	0.1908957200
0.1993747700	-0.0009999500	-0.0731493610	0.0018187047	0.1904404800
0.1955229500	-0.0009999500	-0.0730152430	0.0018284680	0.1901312200
0.1916386900	-0.0009999500	-0.0728761110	0.0018275052	0.1897379600
0.1877152800	-0.0009999500	-0.0727315620	0.0018290621	0.1894895300
0.1837489800	-0.0009999500	-0.0725812840	0.0018523667	0.1892996600
0.1797387700	-0.0009999500	-0.0724250450	0.0018559613	0.1888630100
0.1756858400	-0.0009999500	-0.0722626970	0.0018586255	0.1887245600
0.1715932600	-0.0009999500	-0.0720941570	0.0018697395	0.1884851800
0.1674651700	-0.0009999500	-0.0719193970	0.0018781627	0.1882934900
0.1633058500	-0.0009999500	-0.0717384220	0.0018999709	0.1881468900
0.1591197700	-0.0009999500	-0.0715512340	0.0019146828	0.1879016300
0.1549111900	-0.0009999500	-0.0713578690	0.0019196312	0.1878222100
0.1506834600	-0.0009999500	-0.0711583350	0.0019293246	0.1877265300
0.1464394300	-0.0009999500	-0.0709526090	0.0019415688	0.1876560900
0.1421816100	-0.0009999500	-0.0707406770	0.0019498421	0.1876133400
0.1379123500	-0.0009999500	-0.0705225240	0.0019570701	0.1875859600
0.1336347600	-0.0009999500	-0.0702981650	0.0019700017	0.1876308000
0.1293523900	-0.0009999500	-0.0700676810	0.0019817114	0.1876556600
0.1250697700	-0.0009999500	-0.0698311920	0.0019915064	0.1877269600
0.1207921900	-0.0009999500	-0.0695889290	0.0019894382	0.1878196400
0.1165254500	-0.0009999500	-0.0693411450	0.0019800593	0.1879157300
0.1122761400	-0.0009999500	-0.0690881980	0.0019979521	0.1882100100
0.1080505800	-0.0009999500	-0.0688304450	0.0020283813	0.1883988100
0.1038548900	-0.0009999500	-0.0685682740	0.0020427409	0.1886072000
0.0996945350	-0.0009999500	-0.0683020650	0.0020348327	0.1887914100
0.0955735820	-0.0009999500	-0.0680321460	0.0020352456	0.1891148500
0.0914955810	-0.0009999500	-0.0677588430	0.0020631154	0.1896546900
0.0874631850	-0.0009999500	-0.0674824420	0.0020656954	0.1898348000
0.0834776760	-0.0009999500	-0.0672031420	0.0020517394	0.1901345600
0.0795392990	-0.0009999500	-0.0669210780	0.0020678905	0.1907758700
0.0756472950	-0.0009999500	-0.0666363160	0.0020948276	0.1911851000
0.0717999790	-0.0009999500	-0.0663488360	0.0021099835	0.1915869700
0.0679948930	-0.0009999500	-0.0660585690	0.0021168302	0.1921012700
0.0642290710	-0.0009999500	-0.0657653810	0.0021073987	0.1925198700
0.0604993100	-0.0009999500	-0.0654691090	0.0021066199	0.1932011100
0.0568024960	-0.0009999500	-0.0651695950	0.0021306878	0.1938739900
0.0531359580	-0.0009999500	-0.0648666690	0.0021443328	0.1943917300
0.0494978240	-0.0009999500	-0.0645602350	0.0021488005	0.1950327900
0.0458872430	-0.0009999500	-0.0642502460	0.0021419973	0.1955824600
0.0423044820	-0.0009999500	-0.0639367700	0.0021400010	0.1963925800
0.0387508980	-0.0009999500	-0.0636199710	0.0021593407	0.1971761900
0.0352286850	-0.0009999500	-0.0633001030	0.0021720510	0.1977595800
0.0317407590	-0.0009999500	-0.0629775150	0.0021764443	0.1985727300
0.0282904130	-0.0009999500	-0.0626525950	0.0021822389	0.1993846700
0.0248806530	-0.0009999500	-0.0623257420	0.0021893162	0.2002113800
0.0215139870	-0.0009999500	-0.0619973130	0.0021978105	0.2010765800
0.0181927980	-0.0009999500	-0.0616676660	0.0022021142	0.2019067700
0.0149190520	-0.0009999500	-0.0613371470	0.0022038726	0.2028082800
0.0116939510	-0.0009999500	-0.0610060320	0.0022102547	0.2037476500
0.0085180495	-0.0009999500	-0.0606745480	0.0022159569	0.2046349900
0.0053911731	-0.0009999500	-0.0603428450	0.0022230809	0.2056037200
0.0023121473	-0.0009999500	-0.0600109700	0.0022327620	0.2065766600
-0.0007209239	-0.0009999500	-0.0596788860	0.0022371207	0.2075727100
-0.0037111125	-0.0009999500	-0.0593464040	0.0022425027	0.2085872300
-0.0066625192	-0.0009999500	-0.0590131950	0.0022515401	0.2096038900
-0.0095795142	-0.0009999500	-0.0586788730	0.0022559348	0.2106670300
-0.0124675530	-0.0009999500	-0.0583428960	0.0022593289	0.2117429500
-0.0153318530	-0.0009999500	-0.0580047220	0.0022656907	0.2128516300
-0.0181764160	-0.0009999500	-0.0576639140	0.0022721362	0.2139889400
-0.0210051070	-0.0009999500	-0.0573200320	0.0022783970	0.2151533700
-0.0238211920	-0.0009999500	-0.0569726820	0.0022844166	0.2163505900
-0.0266266990	-0.0009999500	-0.0566216070	0.0022902234	0.2175642300
-0.0294227190	-0.0009999500	-0.0562666510	0.0022965886	0.2187988300
-0.0322092960	-0.0009999500	-0.0559077670	0.0023042824	0.2201049600
-0.0349854310	-0.0009999500	-0.0555450620	0.0022951488	0.2212982200
-0.0377495030	-0.0009999500	-0.0551787240	0.0022869745	0.2226897000
-0.0404995160	-0.0009999500	-0.0548090000	0.0023098275	0.2241420100
-0.0432331260	-0.0009999500	-0.0544362180	0.0023275844	0.2254765600
-0.0459476670	-0.0009999500	-0.0540607570	0.0023280733	0.2268191400
-0.0486408810	-0.0009999500	-0.0536829680	0.0023322838	0.2282231300
-0.0513112400	-0.0009999500	-0.0533031150	0.0023217049	0.2296603200
-0.0539579580	-0.0009999500	-0.0529213700	0.0023124199	0.2312348600
-0.0565811320	-0.0009999500	-0.0525377690	0.0023360672	0.2328562100
-0.0591818650	-0.0009999500	-0.0521521980	0.0023552192	0.2343666100