VARIABLES= iterations rms_res_mf1 rms_res_mf2 rms_res_mf3 rms_res_mf4 rms_res_mf5 rms_res_trb1 CL CD CDv CM
ZONE T = "USM3D-ME, Pointwise_1.0"
1  -999  -999  -999  -999  4.448088E-07  1.202129E+01  -6.592008E-03  1.786714E-01  1.786714E-01  3.019896E-05
2  -999  -999  -999  -999  3.558298E-07  2.908082E+00  6.359018E-01  4.875313E-01  1.783205E-01  -1.646221E-01
3  -999  -999  -999  -999  2.526800E-07  7.544359E-01  1.368142E+00  8.581515E-01  1.776509E-01  -3.485267E-01
4  -999  -999  -999  -999  1.800573E-07  1.983423E-01  1.807860E+00  1.089438E+00  1.763671E-01  -4.581906E-01
5  -999  -999  -999  -999  1.362093E-07  4.421090E-02  1.822171E+00  1.093759E+00  1.738704E-01  -4.626458E-01
6  -999  -999  -999  -999  1.034231E-07  1.221921E-02  1.734356E+00  1.037807E+00  1.690535E-01  -4.405670E-01
7  -999  -999  -999  -999  8.252252E-08  3.594832E-03  1.682901E+00  9.711140E-01  1.601285E-01  -4.278459E-01
8  -999  -999  -999  -999  6.465852E-08  1.002585E-03  1.511057E+00  8.029522E-01  1.447938E-01  -3.772307E-01
9  -999  -999  -999  -999  5.030434E-08  2.672601E-04  1.337888E+00  5.774680E-01  1.215257E-01  -2.997569E-01
10  -999  -999  -999  -999  3.939840E-08  6.919228E-05  1.248729E+00  3.695713E-01  9.239674E-02  -2.262936E-01
11  -999  -999  -999  -999  5.400253E-08  1.763190E-05  6.685461E-01  1.843358E-01  6.380959E-02  -4.832445E-02
12  -999  -999  -999  -999  4.838501E-08  4.546376E-06  2.873147E-01  5.577613E-02  4.255291E-02  2.290986E-02
13  -999  -999  -999  -999  4.205766E-08  3.327832E-06  2.931353E-01  4.835768E-02  3.785895E-02  1.706836E-02
14  -999  -999  -999  -999  2.530542E-08  8.937976E-07  2.820348E-01  4.262795E-02  3.568956E-02  1.795402E-02
15  -999  -999  -999  -999  1.751903E-08  3.847874E-07  2.877601E-01  3.625239E-02  3.234129E-02  1.089159E-02
16  -999  -999  -999  -999  1.235782E-08  2.275285E-07  2.913789E-01  3.518923E-02  3.185092E-02  9.508380E-03
17  -999  -999  -999  -999  9.525515E-09  2.057259E-07  3.036528E-01  3.371162E-02  3.080732E-02  5.479451E-03
18  -999  -999  -999  -999  8.489576E-09  2.191763E-07  3.216025E-01  3.450448E-02  2.925739E-02  6.961774E-04
19  -999  -999  -999  -999  1.517604E-08  2.603778E-07  3.204515E-01  4.195163E-02  2.752308E-02  -2.791071E-04
20  -999  -999  -999  -999  2.231879E-08  3.048704E-07  3.229643E-01  4.860201E-02  2.648839E-02  -1.287552E-03
21  -999  -999  -999  -999  1.464877E-08  2.711730E-07  3.235482E-01  5.105309E-02  2.612194E-02  -1.614405E-03
22  -999  -999  -999  -999  1.757672E-08  3.036073E-07  3.198620E-01  5.541356E-02  2.550048E-02  -1.586617E-03
23  -999  -999  -999  -999  2.012513E-08  3.744647E-07  3.199601E-01  5.885174E-02  2.481977E-02  -2.013532E-03
24  -999  -999  -999  -999  1.204755E-08  3.565098E-07  3.209198E-01  5.979058E-02  2.473011E-02  -2.284206E-03
25  -999  -999  -999  -999  1.009679E-08  3.824760E-07  3.212885E-01  5.971773E-02  2.450612E-02  -2.493866E-03
26  -999  -999  -999  -999  1.071049E-08  4.505507E-07  3.170519E-01  5.816144E-02  2.407111E-02  -1.847288E-03
27  -999  -999  -999  -999  1.711251E-08  5.544415E-07  3.148530E-01  5.723280E-02  2.355477E-02  -1.545231E-03
28  -999  -999  -999  -999  1.269772E-08  5.394766E-07  3.145683E-01  5.714338E-02  2.344629E-02  -1.600371E-03
29  -999  -999  -999  -999  1.403006E-08  5.939668E-07  3.135803E-01  5.724248E-02  2.311782E-02  -1.416100E-03
30  -999  -999  -999  -999  1.814707E-08  7.152460E-07  3.155045E-01  5.770817E-02  2.250687E-02  -1.623408E-03
31  -999  -999  -999  -999  1.825666E-08  7.193066E-07  3.154583E-01  5.763159E-02  2.247550E-02  -1.599124E-03
32  -999  -999  -999  -999  1.233744E-08  7.140278E-07  3.156000E-01  5.694565E-02  2.231467E-02  -1.547147E-03
33  -999  -999  -999  -999  1.143328E-08  7.560339E-07  3.153243E-01  5.569397E-02  2.195915E-02  -1.413246E-03
34  -999  -999  -999  -999  1.281511E-08  8.611105E-07  3.145926E-01  5.492778E-02  2.141401E-02  -1.023308E-03
35  -999  -999  -999  -999  8.178847E-09  8.682658E-07  3.144597E-01  5.430720E-02  2.129550E-02  -1.040224E-03
36  -999  -999  -999  -999  6.581311E-09  9.060793E-07  3.132300E-01  5.315116E-02  2.106154E-02  -7.172052E-04
37  -999  -999  -999  -999  4.649375E-09  9.973017E-07  3.104427E-01  5.139727E-02  2.067292E-02  -2.774120E-04
38  -999  -999  -999  -999  5.927016E-09  1.233400E-06  3.055124E-01  4.975464E-02  2.009907E-02  -1.208432E-04
39  -999  -999  -999  -999  4.617979E-09  1.180385E-06  3.047317E-01  4.957524E-02  1.996759E-02  -1.399947E-04
40  -999  -999  -999  -999  5.683709E-09  1.224375E-06  3.022102E-01  4.838653E-02  1.962950E-02  -8.490934E-05
41  -999  -999  -999  -999  3.626750E-09  1.222310E-06  3.017191E-01  4.833529E-02  1.954807E-02  -9.591868E-05
42  -999  -999  -999  -999  3.422598E-09  1.230184E-06  3.004461E-01  4.804409E-02  1.938713E-02  -5.104755E-05
43  -999  -999  -999  -999  4.497391E-09  1.249371E-06  2.983427E-01  4.735949E-02  1.910481E-02  -7.193416E-05
44  -999  -999  -999  -999  7.154561E-09  1.275883E-06  2.938424E-01  4.701514E-02  1.866307E-02  -1.456738E-04
45  -999  -999  -999  -999  9.413150E-09  1.296601E-06  2.933095E-01  4.914178E-02  1.802982E-02  -9.211603E-04
46  -999  -999  -999  -999  5.675588E-09  1.209589E-06  2.939019E-01  4.936668E-02  1.784299E-02  -1.237470E-03
47  -999  -999  -999  -999  4.967727E-09  1.143621E-06  2.925651E-01  4.817510E-02  1.742876E-02  -1.281260E-03
48  -999  -999  -999  -999  3.032699E-09  1.113289E-06  2.916376E-01  4.822088E-02  1.733016E-02  -1.161885E-03
49  -999  -999  -999  -999  2.644485E-09  1.077878E-06  2.900482E-01  4.811427E-02  1.714943E-02  -9.730381E-04
50  -999  -999  -999  -999  3.181192E-09  1.032842E-06  2.883505E-01  4.784629E-02  1.686737E-02  -9.682589E-04
51  -999  -999  -999  -999  2.272182E-09  1.013523E-06  2.881902E-01  4.781378E-02  1.680759E-02  -1.000803E-03
52  -999  -999  -999  -999  2.216102E-09  9.915395E-07  2.878768E-01  4.783851E-02  1.669075E-02  -1.060151E-03
53  -999  -999  -999  -999  3.090746E-09  9.693510E-07  2.873485E-01  4.796280E-02  1.648817E-02  -1.117917E-03
54  -999  -999  -999  -999  5.339661E-09  9.614087E-07  2.864714E-01  4.791861E-02  1.616966E-02  -1.107560E-03
55  -999  -999  -999  -999  7.119677E-09  9.965604E-07  2.850412E-01  4.746520E-02  1.571725E-02  -1.041739E-03
56  -999  -999  -999  -999  4.961515E-09  9.450978E-07  2.844954E-01  4.732609E-02  1.558382E-02  -9.885420E-04
57  -999  -999  -999  -999  4.316198E-09  9.546650E-07  2.831334E-01  4.704693E-02  1.528225E-02  -8.147438E-04
58  -999  -999  -999  -999  2.794862E-09  9.388934E-07  2.829552E-01  4.699187E-02  1.521690E-02  -7.907407E-04
59  -999  -999  -999  -999  2.293329E-09  9.379375E-07  2.826845E-01  4.687987E-02  1.509387E-02  -7.748404E-04
60  -999  -999  -999  -999  2.112393E-09  9.431448E-07  2.819331E-01  4.667190E-02  1.489499E-02  -6.793138E-04
61  -999  -999  -999  -999  1.435555E-09  9.325501E-07  2.816974E-01  4.656469E-02  1.485602E-02  -6.460314E-04
62  -999  -999  -999  -999  1.207522E-09  9.270600E-07  2.810508E-01  4.627075E-02  1.477809E-02  -5.312704E-04
63  -999  -999  -999  -999  1.218063E-09  9.279345E-07  2.792854E-01  4.540661E-02  1.463593E-02  -2.624498E-04
64  -999  -999  -999  -999  2.013935E-09  9.415094E-07  2.765738E-01  4.465622E-02  1.440342E-02  -7.694600E-05
65  -999  -999  -999  -999  3.992720E-09  9.949807E-07  2.741328E-01  4.488682E-02  1.405446E-02  -1.087291E-04
66  -999  -999  -999  -999  2.487247E-09  9.467827E-07  2.739388E-01  4.490467E-02  1.395686E-02  -1.729286E-04
67  -999  -999  -999  -999  2.393467E-09  9.577126E-07  2.731357E-01  4.485290E-02  1.372115E-02  -1.348403E-04
68  -999  -999  -999  -999  2.409785E-09  9.574860E-07  2.730902E-01  4.484498E-02  1.371532E-02  -1.334053E-04
69  -999  -999  -999  -999  1.446730E-09  9.423367E-07  2.727648E-01  4.448665E-02  1.366789E-02  -1.544967E-04
70  -999  -999  -999  -999  1.314786E-09  9.412027E-07  2.716867E-01  4.389238E-02  1.357561E-02  -5.374194E-05
71  -999  -999  -999  -999  1.709160E-09  9.555976E-07  2.695118E-01  4.385528E-02  1.342018E-02  1.588117E-04
72  -999  -999  -999  -999  1.710899E-09  9.556406E-07  2.695086E-01  4.385680E-02  1.341937E-02  1.583666E-04
73  -999  -999  -999  -999  1.039157E-09  9.512692E-07  2.693931E-01  4.392625E-02  1.338965E-02  1.470720E-04
74  -999  -999  -999  -999  8.974799E-10  9.514717E-07  2.690630E-01  4.404199E-02  1.332962E-02  1.210289E-04
75  -999  -999  -999  -999  1.182695E-09  9.610866E-07  2.685280E-01  4.406452E-02  1.321908E-02  6.985673E-05
76  -999  -999  -999  -999  2.489633E-09  1.000356E-06  2.676708E-01  4.420811E-02  1.303196E-02  1.927544E-05
77  -999  -999  -999  -999  3.674192E-09  1.117842E-06  2.664641E-01  4.423985E-02  1.274305E-02  5.237823E-05
78  -999  -999  -999  -999  2.475685E-09  1.076677E-06  2.662665E-01  4.424213E-02  1.267087E-02  3.539905E-05
79  -999  -999  -999  -999  2.098512E-09  1.094622E-06  2.657943E-01  4.400823E-02  1.249698E-02  6.769989E-05
80  -999  -999  -999  -999  2.228325E-09  1.177082E-06  2.644716E-01  4.371604E-02  1.224081E-02  1.610799E-04
81  -999  -999  -999  -999  1.436761E-09  1.140675E-06  2.642833E-01  4.371210E-02  1.219521E-02  1.929832E-04
82  -999  -999  -999  -999  1.153151E-09  1.144310E-06  2.635507E-01  4.331562E-02  1.209626E-02  3.210825E-04
83  -999  -999  -999  -999  7.467981E-10  1.137802E-06  2.633183E-01  4.317064E-02  1.207631E-02  3.510732E-04
84  -999  -999  -999  -999  6.218082E-10  1.136692E-06  2.627801E-01  4.289283E-02  1.203581E-02  4.213521E-04
85  -999  -999  -999  -999  6.776322E-10  1.147518E-06  2.620074E-01  4.270601E-02  1.196260E-02  4.547495E-04
86  -999  -999  -999  -999  1.211778E-09  1.191459E-06  2.610811E-01  4.271992E-02  1.184212E-02  4.579621E-04
87  -999  -999  -999  -999  2.116188E-09  1.309431E-06  2.597735E-01  4.276619E-02  1.165648E-02  4.664045E-04
88  -999  -999  -999  -999  1.345712E-09  1.259471E-06  2.596864E-01  4.282338E-02  1.161072E-02  4.226868E-04
89  -999  -999  -999  -999  1.264090E-09  1.264595E-06  2.593929E-01  4.272283E-02  1.150008E-02  4.131704E-04
90  -999  -999  -999  -999  7.636489E-10  1.250712E-06  2.591970E-01  4.254506E-02  1.147810E-02  4.155797E-04
91  -999  -999  -999  -999  6.907852E-10  1.245023E-06  2.585844E-01  4.228199E-02  1.143540E-02  4.831992E-04
92  -999  -999  -999  -999  8.432793E-10  1.253007E-06  2.576015E-01  4.224870E-02  1.136256E-02  5.759466E-04
93  -999  -999  -999  -999  8.510646E-10  1.253574E-06  2.575825E-01  4.225060E-02  1.135970E-02  5.750993E-04
94  -999  -999  -999  -999  5.153820E-10  1.248282E-06  2.574668E-01  4.224013E-02  1.134584E-02  5.742641E-04
95  -999  -999  -999  -999  4.367197E-10  1.246021E-06  2.572573E-01  4.228198E-02  1.131791E-02  5.755569E-04
96  -999  -999  -999  -999  5.605705E-10  1.248408E-06  2.568837E-01  4.221417E-02  1.126640E-02  5.699961E-04
97  -999  -999  -999  -999  1.243749E-09  1.264519E-06  2.563041E-01  4.224229E-02  1.117666E-02  5.362869E-04
98  -999  -999  -999  -999  1.882368E-09  1.333296E-06  2.556127E-01  4.231605E-02  1.103723E-02  5.245235E-04
99  -999  -999  -999  -999  1.248481E-09  1.264296E-06  2.555241E-01  4.234079E-02  1.100276E-02  5.067367E-04
100  -999  -999  -999  -999  1.073037E-09  1.239872E-06  2.552814E-01  4.220819E-02  1.092038E-02  5.094371E-04
101  -999  -999  -999  -999  6.794949E-10  1.220823E-06  2.551558E-01  4.212676E-02  1.090386E-02  5.198959E-04
102  -999  -999  -999  -999  5.685106E-10  1.204490E-06  2.548386E-01  4.206208E-02  1.087254E-02  5.575729E-04
103  -999  -999  -999  -999  5.835302E-10  1.189988E-06  2.544291E-01  4.203674E-02  1.081950E-02  5.912185E-04
104  -999  -999  -999  -999  5.842597E-10  1.189985E-06  2.544249E-01  4.203524E-02  1.081910E-02  5.916283E-04
105  -999  -999  -999  -999  3.770178E-10  1.180359E-06  2.543448E-01  4.199978E-02  1.080897E-02  6.007491E-04
106  -999  -999  -999  -999  3.101813E-10  1.171353E-06  2.541589E-01  4.193915E-02  1.078878E-02  6.264768E-04
107  -999  -999  -999  -999  3.580703E-10  1.162998E-06  2.537317E-01  4.173701E-02  1.075160E-02  6.704843E-04
108  -999  -999  -999  -999  7.281564E-10  1.172250E-06  2.530122E-01  4.159229E-02  1.068683E-02  6.844534E-04
109  -999  -999  -999  -999  1.278520E-09  1.274900E-06  2.524283E-01  4.172156E-02  1.058651E-02  6.420403E-04
110  -999  -999  -999  -999  1.278700E-09  1.275100E-06  2.524276E-01  4.172140E-02  1.058635E-02  6.420230E-04
111  -999  -999  -999  -999  8.221991E-10  1.184039E-06  2.523829E-01  4.176151E-02  1.056094E-02  6.224338E-04
112  -999  -999  -999  -999  7.636557E-10  1.159053E-06  2.521374E-01  4.163543E-02  1.049903E-02  6.267825E-04
113  -999  -999  -999  -999  8.595268E-10  1.221047E-06  2.512982E-01  4.148517E-02  1.040607E-02  6.925787E-04
114  -999  -999  -999  -999  5.119443E-10  1.141366E-06  2.511791E-01  4.148417E-02  1.038839E-02  6.849851E-04
115  -999  -999  -999  -999  4.233671E-10  1.104814E-06  2.510051E-01  4.141099E-02  1.035034E-02  6.909462E-04
116  -999  -999  -999  -999  2.581345E-10  1.088957E-06  2.509125E-01  4.133386E-02  1.034288E-02  6.946346E-04
117  -999  -999  -999  -999  2.299886E-10  1.071473E-06  2.506670E-01  4.124494E-02  1.032759E-02  7.211073E-04
118  -999  -999  -999  -999  3.637573E-10  1.053863E-06  2.502892E-01  4.122038E-02  1.029964E-02  7.393923E-04
119  -999  -999  -999  -999  7.119311E-10  1.053320E-06  2.500200E-01  4.131917E-02  1.025212E-02  7.072665E-04
120  -999  -999  -999  -999  9.830171E-10  1.150714E-06  2.496614E-01  4.133687E-02  1.018331E-02  6.972086E-04
121  -999  -999  -999  -999  6.382587E-10  1.034836E-06  2.495854E-01  4.135159E-02  1.016513E-02  6.925690E-04
122  -999  -999  -999  -999  5.524777E-10  9.969040E-07  2.494501E-01  4.126323E-02  1.011954E-02  6.867977E-04
123  -999  -999  -999  -999  5.530504E-10  9.972038E-07  2.494425E-01  4.126177E-02  1.011869E-02  6.873558E-04
124  -999  -999  -999  -999  3.442443E-10  9.663147E-07  2.493566E-01  4.120246E-02  1.011070E-02  6.953929E-04
125  -999  -999  -999  -999  2.895155E-10  9.438920E-07  2.491245E-01  4.115662E-02  1.009439E-02  7.246142E-04
126  -999  -999  -999  -999  3.084053E-10  9.320521E-07  2.488684E-01  4.115208E-02  1.006668E-02  7.395706E-04
127  -999  -999  -999  -999  3.092639E-10  9.321684E-07  2.488655E-01  4.115125E-02  1.006641E-02  7.397301E-04
128  -999  -999  -999  -999  1.960701E-10  9.188078E-07  2.488207E-01  4.112960E-02  1.006105E-02  7.432389E-04
129  -999  -999  -999  -999  1.637155E-10  9.070777E-07  2.487235E-01  4.110092E-02  1.005034E-02  7.533218E-04
130  -999  -999  -999  -999  2.099900E-10  8.993760E-07  2.484816E-01  4.099357E-02  1.003048E-02  7.707990E-04
131  -999  -999  -999  -999  4.671913E-10  9.218753E-07  2.481276E-01  4.096980E-02  9.996170E-03  7.641427E-04
132  -999  -999  -999  -999  6.982883E-10  1.048742E-06  2.478574E-01  4.102400E-02  9.948197E-03  7.450838E-04
133  -999  -999  -999  -999  4.498219E-10  9.198825E-07  2.478113E-01  4.104104E-02  9.934323E-03  7.351945E-04
134  -999  -999  -999  -999  4.246524E-10  8.810899E-07  2.476966E-01  4.097581E-02  9.898909E-03  7.282778E-04
135  -999  -999  -999  -999  2.574736E-10  8.486972E-07  2.476214E-01  4.092286E-02  9.892553E-03  7.337993E-04
136  -999  -999  -999  -999  2.249191E-10  8.244142E-07  2.474093E-01  4.089151E-02  9.879946E-03  7.609987E-04
137  -999  -999  -999  -999  2.497902E-10  8.159239E-07  2.471971E-01  4.088500E-02  9.858550E-03  7.697735E-04
138  -999  -999  -999  -999  2.499227E-10  8.159519E-07  2.471967E-01  4.088493E-02  9.858510E-03  7.697798E-04
139  -999  -999  -999  -999  1.529409E-10  8.002870E-07  2.471568E-01  4.086486E-02  9.854328E-03  7.727918E-04
140  -999  -999  -999  -999  1.280726E-10  7.862836E-07  2.470710E-01  4.084377E-02  9.845942E-03  7.798625E-04
141  -999  -999  -999  -999  1.751850E-10  7.768958E-07  2.468819E-01  4.078340E-02  9.830360E-03  7.879452E-04
142  -999  -999  -999  -999  4.082273E-10  7.994118E-07  2.466710E-01  4.080238E-02  9.803580E-03  7.713188E-04
143  -999  -999  -999  -999  5.550260E-10  9.178805E-07  2.464983E-01  4.082816E-02  9.768940E-03  7.585634E-04
144  -999  -999  -999  -999  3.617391E-10  7.862123E-07  2.464529E-01  4.084236E-02  9.758021E-03  7.551846E-04
145  -999  -999  -999  -999  3.324071E-10  7.449798E-07  2.463659E-01  4.078930E-02  9.730010E-03  7.485415E-04
146  -999  -999  -999  -999  2.046593E-10  7.124738E-07  2.463103E-01  4.075476E-02  9.724903E-03  7.544861E-04
147  -999  -999  -999  -999  1.735421E-10  6.880604E-07  2.461621E-01  4.073506E-02  9.715084E-03  7.725147E-04
148  -999  -999  -999  -999  1.853869E-10  6.823169E-07  2.460188E-01  4.072530E-02  9.698390E-03  7.784422E-04
149  -999  -999  -999  -999  2.214102E-10  7.040347E-07  2.459164E-01  4.069885E-02  9.689169E-03  7.824836E-04
150  -999  -999  -999  -999  3.131887E-10  7.409817E-07  2.456665E-01  4.064733E-02  9.663901E-03  7.892906E-04
151  -999  -999  -999  -999  3.171961E-10  7.450891E-07  2.456609E-01  4.064772E-02  9.662883E-03  7.889751E-04
152  -999  -999  -999  -999  2.060348E-10  6.784138E-07  2.456327E-01  4.065254E-02  9.656697E-03  7.830959E-04
153  -999  -999  -999  -999  1.996325E-10  6.455914E-07  2.455813E-01  4.065240E-02  9.643076E-03  7.760240E-04
154  -999  -999  -999  -999  2.027596E-10  6.461109E-07  2.455736E-01  4.065079E-02  9.642197E-03  7.762548E-04
155  -999  -999  -999  -999  1.312946E-10  6.306312E-07  2.455627E-01  4.064330E-02  9.639745E-03  7.744774E-04
156  -999  -999  -999  -999  1.162360E-10  6.134349E-07  2.455189E-01  4.061995E-02  9.634467E-03  7.755778E-04
157  -999  -999  -999  -999  1.507965E-10  6.001024E-07  2.454158E-01  4.061278E-02  9.624844E-03  7.810629E-04
158  -999  -999  -999  -999  2.117909E-10  6.202777E-07  2.452714E-01  4.061092E-02  9.608652E-03  7.867957E-04
159  -999  -999  -999  -999  3.149008E-10  7.137341E-07  2.450673E-01  4.057842E-02  9.585779E-03  7.879552E-04
160  -999  -999  -999  -999  2.011368E-10  6.212600E-07  2.450625E-01  4.058891E-02  9.579996E-03  7.787035E-04
161  -999  -999  -999  -999  1.912620E-10  5.862210E-07  2.450026E-01  4.056397E-02  9.564727E-03  7.759635E-04
162  -999  -999  -999  -999  1.950291E-10  5.885682E-07  2.449885E-01  4.056144E-02  9.563357E-03  7.767603E-04
163  -999  -999  -999  -999  1.218498E-10  5.656438E-07  2.449618E-01  4.054505E-02  9.560663E-03  7.766651E-04
164  -999  -999  -999  -999  1.097963E-10  5.454798E-07  2.448899E-01  4.051991E-02  9.555051E-03  7.834365E-04
165  -999  -999  -999  -999  1.384491E-10  5.368067E-07  2.447716E-01  4.052453E-02  9.544948E-03  7.906543E-04
166  -999  -999  -999  -999  2.015606E-10  5.741479E-07  2.446305E-01  4.050732E-02  9.528166E-03  7.930481E-04
167  -999  -999  -999  -999  2.867909E-10  6.695180E-07  2.445178E-01  4.050696E-02  9.511126E-03  7.873917E-04
168  -999  -999  -999  -999  1.836771E-10  5.570525E-07  2.445099E-01  4.051142E-02  9.504286E-03  7.800369E-04
169  -999  -999  -999  -999  1.879330E-10  5.316946E-07  2.444173E-01  4.047018E-02  9.487117E-03  7.801434E-04
170  -999  -999  -999  -999  1.192537E-10  4.975495E-07  2.443865E-01  4.045877E-02  9.484343E-03  7.821638E-04
171  -999  -999  -999  -999  1.060963E-10  4.757642E-07  2.443103E-01  4.046930E-02  9.478367E-03  7.910859E-04
172  -999  -999  -999  -999  1.195487E-10  4.765441E-07  2.442568E-01  4.045672E-02  9.468180E-03  7.872590E-04
173  -999  -999  -999  -999  1.195816E-10  4.765704E-07  2.442567E-01  4.045670E-02  9.468171E-03  7.872633E-04
174  -999  -999  -999  -999  7.529535E-11  4.600302E-07  2.442384E-01  4.044521E-02  9.466183E-03  7.896138E-04
175  -999  -999  -999  -999  6.509108E-11  4.472194E-07  2.441906E-01  4.042826E-02  9.462073E-03  7.953778E-04
176  -999  -999  -999  -999  8.937038E-11  4.454911E-07  2.440968E-01  4.039758E-02  9.454566E-03  7.994585E-04
177  -999  -999  -999  -999  1.821054E-10  5.186508E-07  2.439958E-01  4.040221E-02  9.441938E-03  7.930743E-04
178  -999  -999  -999  -999  2.190922E-10  5.613581E-07  2.439459E-01  4.040816E-02  9.432128E-03  7.893998E-04
179  -999  -999  -999  -999  1.465692E-10  4.676629E-07  2.439245E-01  4.041410E-02  9.426728E-03  7.867526E-04
180  -999  -999  -999  -999  1.503656E-10  4.497969E-07  2.438698E-01  4.038904E-02  9.412704E-03  7.830826E-04
181  -999  -999  -999  -999  9.201655E-11  4.206417E-07  2.438382E-01  4.037261E-02  9.410326E-03  7.863799E-04
182  -999  -999  -999  -999  8.334903E-11  4.011797E-07  2.437772E-01  4.037982E-02  9.405667E-03  7.931013E-04
183  -999  -999  -999  -999  9.338523E-11  4.055580E-07  2.437267E-01  4.036710E-02  9.397372E-03  7.910497E-04
184  -999  -999  -999  -999  5.870296E-11  3.896209E-07  2.437111E-01  4.035760E-02  9.395885E-03  7.929170E-04
185  -999  -999  -999  -999  5.142272E-11  3.780412E-07  2.436677E-01  4.034079E-02  9.392583E-03  7.980490E-04
186  -999  -999  -999  -999  7.151984E-11  3.778387E-07  2.435887E-01  4.031938E-02  9.386437E-03  8.006557E-04
187  -999  -999  -999  -999  1.494509E-10  4.464828E-07  2.435206E-01  4.033220E-02  9.376253E-03  7.925881E-04
188  -999  -999  -999  -999  1.497360E-10  4.465078E-07  2.435202E-01  4.033222E-02  9.376164E-03  7.925554E-04
189  -999  -999  -999  -999  1.051000E-10  3.863369E-07  2.435163E-01  4.033575E-02  9.374698E-03  7.905169E-04
190  -999  -999  -999  -999  9.245950E-11  3.633107E-07  2.434957E-01  4.033980E-02  9.369605E-03  7.889977E-04
191  -999  -999  -999  -999  1.214494E-10  3.778008E-07  2.434273E-01  4.031997E-02  9.360296E-03  7.897840E-04
192  -999  -999  -999  -999  7.582322E-11  3.528134E-07  2.434117E-01  4.031973E-02  9.358592E-03  7.900981E-04
193  -999  -999  -999  -999  6.628338E-11  3.378319E-07  2.433860E-01  4.032903E-02  9.354784E-03  7.916872E-04
194  -999  -999  -999  -999  7.700731E-11  3.439849E-07  2.433412E-01  4.029678E-02  9.347867E-03  7.917533E-04
195  -999  -999  -999  -999  1.227165E-10  4.014498E-07  2.432396E-01  4.028572E-02  9.338001E-03  7.943194E-04
196  -999  -999  -999  -999  7.943926E-11  3.488258E-07  2.432279E-01  4.028834E-02  9.335795E-03  7.922283E-04
197  -999  -999  -999  -999  7.708537E-11  3.274672E-07  2.432066E-01  4.028840E-02  9.329746E-03  7.898018E-04
198  -999  -999  -999  -999  5.109633E-11  3.145962E-07  2.432039E-01  4.028459E-02  9.328845E-03  7.883464E-04
199  -999  -999  -999  -999  4.606447E-11  3.018454E-07  2.431843E-01  4.027258E-02  9.326487E-03  7.890435E-04
200  -999  -999  -999  -999  5.876599E-11  2.956507E-07  2.431403E-01  4.027082E-02  9.322269E-03  7.921471E-04
201  -999  -999  -999  -999  8.314775E-11  3.257472E-07  2.430814E-01  4.026290E-02  9.315133E-03  7.939120E-04
202  -999  -999  -999  -999  1.113578E-10  3.772578E-07  2.430329E-01  4.025792E-02  9.308803E-03  7.925541E-04
203  -999  -999  -999  -999  7.243970E-11  3.180497E-07  2.430278E-01  4.026077E-02  9.305863E-03  7.899542E-04
204  -999  -999  -999  -999  7.410737E-11  3.033226E-07  2.429966E-01  4.024550E-02  9.298849E-03  7.888628E-04
205  -999  -999  -999  -999  7.633013E-11  3.064686E-07  2.429902E-01  4.024504E-02  9.298069E-03  7.889870E-04
206  -999  -999  -999  -999  4.919999E-11  2.869835E-07  2.429798E-01  4.023952E-02  9.297160E-03  7.890714E-04
207  -999  -999  -999  -999  4.492563E-11  2.723854E-07  2.429513E-01  4.023360E-02  9.294601E-03  7.918299E-04
208  -999  -999  -999  -999  5.608763E-11  2.708619E-07  2.429139E-01  4.023660E-02  9.290190E-03  7.925186E-04
209  -999  -999  -999  -999  5.907045E-11  2.751726E-07  2.429067E-01  4.023508E-02  9.289255E-03  7.926852E-04
210  -999  -999  -999  -999  8.176306E-11  3.124035E-07  2.428524E-01  4.022401E-02  9.282277E-03  7.933179E-04
211  -999  -999  -999  -999  5.172378E-11  2.762315E-07  2.428447E-01  4.022334E-02  9.280488E-03  7.925318E-04
212  -999  -999  -999  -999  4.964134E-11  2.580281E-07  2.428286E-01  4.022166E-02  9.276742E-03  7.909178E-04
213  -999  -999  -999  -999  7.551914E-11  2.876993E-07  2.427703E-01  4.020554E-02  9.270494E-03  7.928942E-04
214  -999  -999  -999  -999  8.881009E-11  3.200054E-07  2.427473E-01  4.020746E-02  9.266232E-03  7.919723E-04
215  -999  -999  -999  -999  6.663588E-11  2.325670E-07  2.427803E-01  4.020719E-02  9.273496E-03  7.938497E-04
216  -999  -999  -999  -999  5.426061E-11  2.055857E-07  2.427891E-01  4.020550E-02  9.276380E-03  7.952953E-04
217  -999  -999  -999  -999  7.229037E-11  2.216713E-07  2.427695E-01  4.020899E-02  9.273422E-03  7.933995E-04
218  -999  -999  -999  -999  5.148970E-11  2.190269E-07  2.427587E-01  4.021309E-02  9.271830E-03  7.922521E-04
219  -999  -999  -999  -999  5.325083E-11  2.322373E-07  2.427501E-01  4.021445E-02  9.268235E-03  7.896243E-04
220  -999  -999  -999  -999  7.164815E-11  2.750329E-07  2.427004E-01  4.020055E-02  9.263437E-03  7.914154E-04
221  -999  -999  -999  -999  4.575035E-11  2.423933E-07  2.426962E-01  4.020390E-02  9.261821E-03  7.904395E-04
222  -999  -999  -999  -999  4.333241E-11  2.288186E-07  2.426819E-01  4.020350E-02  9.258282E-03  7.902805E-04
223  -999  -999  -999  -999  2.950743E-11  2.208289E-07  2.426813E-01  4.020107E-02  9.257744E-03  7.892112E-04
224  -999  -999  -999  -999  2.674824E-11  2.127815E-07  2.426715E-01  4.019213E-02  9.256441E-03  7.894895E-04
225  -999  -999  -999  -999  3.163483E-11  2.091094E-07  2.426436E-01  4.018302E-02  9.253997E-03  7.918563E-04
226  -999  -999  -999  -999  4.745423E-11  2.276074E-07  2.426012E-01  4.018187E-02  9.249601E-03  7.930365E-04
227  -999  -999  -999  -999  6.968223E-11  2.724560E-07  2.425743E-01  4.018076E-02  9.244992E-03  7.909927E-04
228  -999  -999  -999  -999  4.587984E-11  2.314267E-07  2.425726E-01  4.018305E-02  9.243305E-03  7.892787E-04
229  -999  -999  -999  -999  4.528942E-11  2.180572E-07  2.425601E-01  4.017945E-02  9.239342E-03  7.884347E-04
230  -999  -999  -999  -999  4.539668E-11  2.182759E-07  2.425597E-01  4.017934E-02  9.239295E-03  7.884557E-04
231  -999  -999  -999  -999  3.062089E-11  2.075029E-07  2.425547E-01  4.017508E-02  9.238620E-03  7.880187E-04
232  -999  -999  -999  -999  2.837769E-11  1.973693E-07  2.425389E-01  4.016683E-02  9.237106E-03  7.894051E-04
233  -999  -999  -999  -999  3.499106E-11  1.954268E-07  2.425105E-01  4.016749E-02  9.234355E-03  7.913400E-04
234  -999  -999  -999  -999  4.721867E-11  2.261816E-07  2.424803E-01  4.016155E-02  9.229911E-03  7.914779E-04
235  -999  -999  -999  -999  3.162852E-11  2.029943E-07  2.424757E-01  4.016145E-02  9.229206E-03  7.913286E-04
236  -999  -999  -999  -999  2.965101E-11  1.917480E-07  2.424638E-01  4.015864E-02  9.227047E-03  7.911184E-04
237  -999  -999  -999  -999  4.392256E-11  2.020023E-07  2.424309E-01  4.014731E-02  9.223279E-03  7.911400E-04
238  -999  -999  -999  -999  5.424848E-11  2.307529E-07  2.424194E-01  4.014990E-02  9.220604E-03  7.902001E-04
239  -999  -999  -999  -999  5.686226E-11  2.407360E-07  2.424120E-01  4.014877E-02  9.218873E-03  7.895615E-04
240  -999  -999  -999  -999  6.296337E-11  2.716454E-07  2.423863E-01  4.014812E-02  9.212414E-03  7.876985E-04
241  -999  -999  -999  -999  3.949839E-11  2.135059E-07  2.423768E-01  4.014231E-02  9.210616E-03  7.874763E-04
242  -999  -999  -999  -999  3.744940E-11  1.866208E-07  2.423601E-01  4.014390E-02  9.206645E-03  7.890345E-04
243  -999  -999  -999  -999  4.329173E-11  2.140336E-07  2.423192E-01  4.012723E-02  9.201641E-03  7.908398E-04
244  -999  -999  -999  -999  2.820090E-11  1.848750E-07  2.423141E-01  4.012954E-02  9.200878E-03  7.899356E-04
245  -999  -999  -999  -999  2.713655E-11  1.724307E-07  2.423069E-01  4.013102E-02  9.198647E-03  7.898402E-04
246  -999  -999  -999  -999  3.867229E-11  1.860258E-07  2.422732E-01  4.011906E-02  9.195681E-03  7.901709E-04
247  -999  -999  -999  -999  2.658400E-11  1.684205E-07  2.422720E-01  4.012047E-02  9.194688E-03  7.895173E-04
248  -999  -999  -999  -999  2.598190E-11  1.583337E-07  2.422657E-01  4.012251E-02  9.192951E-03  7.889803E-04
249  -999  -999  -999  -999  3.770366E-11  1.788673E-07  2.422469E-01  4.011674E-02  9.189999E-03  7.888688E-04
250  -999  -999  -999  -999  2.658953E-11  1.567199E-07  2.422433E-01  4.011617E-02  9.189838E-03  7.889533E-04
251  -999  -999  -999  -999  2.348075E-11  1.482088E-07  2.422349E-01  4.011765E-02  9.188751E-03  7.892518E-04
252  -999  -999  -999  -999  2.734317E-11  1.514776E-07  2.422271E-01  4.011473E-02  9.186416E-03  7.883818E-04
253  -999  -999  -999  -999  3.672535E-11  1.805711E-07  2.421986E-01  4.010746E-02  9.183469E-03  7.893159E-04
254  -999  -999  -999  -999  2.456318E-11  1.552433E-07  2.421964E-01  4.010694E-02  9.182569E-03  7.889325E-04
255  -999  -999  -999  -999  2.413778E-11  1.435488E-07  2.421863E-01  4.010653E-02  9.180659E-03  7.887731E-04
256  -999  -999  -999  -999  2.791437E-11  1.506962E-07  2.421769E-01  4.010389E-02  9.179488E-03  7.889298E-04
257  -999  -999  -999  -999  3.358929E-11  1.625150E-07  2.421599E-01  4.010175E-02  9.176713E-03  7.884713E-04
258  -999  -999  -999  -999  2.272489E-11  1.441436E-07  2.421551E-01  4.009887E-02  9.175931E-03  7.885728E-04
259  -999  -999  -999  -999  2.198946E-11  1.335959E-07  2.421483E-01  4.010091E-02  9.174508E-03  7.886155E-04
260  -999  -999  -999  -999  1.659425E-11  1.294449E-07  2.421481E-01  4.010121E-02  9.174228E-03  7.883162E-04
261  -999  -999  -999  -999  1.562333E-11  1.245818E-07  2.421464E-01  4.009974E-02  9.173705E-03  7.879938E-04
262  -999  -999  -999  -999  1.674202E-11  1.212825E-07  2.421396E-01  4.009351E-02  9.172714E-03  7.880195E-04
263  -999  -999  -999  -999  2.171052E-11  1.289198E-07  2.421167E-01  4.008924E-02  9.170883E-03  7.896363E-04
264  -999  -999  -999  -999  3.249631E-11  1.558062E-07  2.421032E-01  4.008984E-02  9.168616E-03  7.885912E-04
265  -999  -999  -999  -999  2.216865E-11  1.337885E-07  2.421017E-01  4.009103E-02  9.167917E-03  7.879434E-04
266  -999  -999  -999  -999  2.188940E-11  1.243053E-07  2.420977E-01  4.009135E-02  9.166254E-03  7.872443E-04