TITLE     = "Surface mesh and solution"
VARIABLES = "x"
"y"
"z"
"cfx"
"Cp"
DATASETAUXDATA alpha_deg="  0.0000000E+00"
DATASETAUXDATA beta_deg="  0.0000000E+00"
DATASETAUXDATA bref="  0.7500000"
DATASETAUXDATA cref="   1.000000"
DATASETAUXDATA itranflg="           0"
DATASETAUXDATA ivisc="           2"
DATASETAUXDATA mach="  0.2000000"
DATASETAUXDATA reue_mil="   4.600000"
DATASETAUXDATA sref="  0.7500000"
DATASETAUXDATA tinf_r="   521.0000"
DATASETAUXDATA xmc="  0.0000000E+00"
DATASETAUXDATA ymc="  0.0000000E+00"
DATASETAUXDATA zmc="  0.0000000E+00"
ZONE T="USM3D-ME, HM Y=-0.001"
 STRANDID=0, SOLUTIONTIME=0
 Nodes=2025, Elements=1996, ZONETYPE=FELineSeg
 DATAPACKING=POINT
 DT=(DOUBLE DOUBLE DOUBLE DOUBLE DOUBLE )
 5.875024733E-01 -1.000000000E-03 -8.255415957E-02 1.587359019E-04 3.326134118E-01
 5.894168195E-01 -1.000000000E-03 -8.313305066E-02 1.539402865E-04 3.342166445E-01
 5.846434124E-01 -1.000000000E-03 -8.169070268E-02 1.657549036E-04 3.302137551E-01
 5.827231223E-01 -1.000000000E-03 -8.111151495E-02 1.707201674E-04 3.286014269E-01
 6.162336186E-01 -1.000000000E-03 -9.130618370E-02 8.641867835E-05 3.567777791E-01
 6.181190845E-01 -1.000000000E-03 -9.188536639E-02 8.153164411E-05 3.583696606E-01
 6.133692879E-01 -1.000000000E-03 -9.042746218E-02 9.350021313E-05 3.543619064E-01
 6.114940621E-01 -1.000000000E-03 -8.985293050E-02 9.852368915E-05 3.527815797E-01
 5.923036697E-01 -1.000000000E-03 -8.400716478E-02 1.470931478E-04 3.366359038E-01
 5.941993874E-01 -1.000000000E-03 -8.458191683E-02 1.421878878E-04 3.382247146E-01
 6.209929777E-01 -1.000000000E-03 -9.276933971E-02 7.404179037E-05 3.607875347E-01
 6.228657727E-01 -1.000000000E-03 -9.334614651E-02 6.892728928E-05 3.623638704E-01
 6.086033268E-01 -1.000000000E-03 -8.896842573E-02 1.059465388E-04 3.503457316E-01
 6.067086023E-01 -1.000000000E-03 -8.838944192E-02 1.109387205E-04 3.487541734E-01
 5.970941018E-01 -1.000000000E-03 -8.546069576E-02 1.348984489E-04 3.406539101E-01
 5.989999499E-01 -1.000000000E-03 -8.604002943E-02 1.299167803E-04 3.422585364E-01
 6.038061050E-01 -1.000000000E-03 -8.750366792E-02 1.180044230E-04 3.463100974E-01
 6.019180849E-01 -1.000000000E-03 -8.692824355E-02 1.227689226E-04 3.447188937E-01
 6.257450832E-01 -1.000000000E-03 -9.423412211E-02 6.159733465E-05 3.647912403E-01
 6.276404915E-01 -1.000000000E-03 -9.481944069E-02 5.672616682E-05 3.663881644E-01
 6.305508710E-01 -1.000000000E-03 -9.571939403E-02 4.955053603E-05 3.688302409E-01
 5.798870846E-01 -1.000000000E-03 -8.025721610E-02 1.775789046E-04 3.262259996E-01
 5.779898856E-01 -1.000000000E-03 -7.968645707E-02 1.824435018E-04 3.246372006E-01
 5.751475805E-01 -1.000000000E-03 -7.883245948E-02 1.894046410E-04 3.222576662E-01
 5.732271681E-01 -1.000000000E-03 -7.825619641E-02 1.943334023E-04 3.206503311E-01
 5.655534855E-01 -1.000000000E-03 -7.595946939E-02 2.131853310E-04 3.142412787E-01
 5.703498947E-01 -1.000000000E-03 -7.739391760E-02 2.013746835E-04 3.182442792E-01
 5.684585154E-01 -1.000000000E-03 -7.682782588E-02 2.061858770E-04 3.166652816E-01
 7.384926593E-01 -1.000000000E-03 -1.302327085E-01 1.686566031E-03 4.557495656E-01
 7.385024968E-01 -1.000000000E-03 -1.302330062E-01 1.777714398E-03 4.516005455E-01
 7.386058150E-01 -1.000000000E-03 -1.302361330E-01 2.772470260E-03 4.051260440E-01
 7.385076582E-01 -1.000000000E-03 -1.302037345E-01 1.408345763E-03 4.466973436E-01
 7.384983121E-01 -1.000000000E-03 -1.302006496E-01 1.283227403E-03 4.504177750E-01
 7.384872456E-01 -1.000000000E-03 -1.301969971E-01 1.185477870E-03 4.504719035E-01
 7.383860485E-01 -1.000000000E-03 -1.301635964E-01 2.286305157E-04 4.510823138E-01
 7.382866807E-01 -1.000000000E-03 -1.301308010E-01 1.621870877E-05 4.510254481E-01
 7.382697734E-01 -1.000000000E-03 -1.301252209E-01 -1.715653813E-05 4.510105519E-01
 7.382510279E-01 -1.000000000E-03 -1.301190344E-01 -3.040818603E-05 4.509834501E-01
 7.381417682E-01 -1.000000000E-03 -1.300829760E-01 -1.149261773E-04 4.508313666E-01
 7.380301445E-01 -1.000000000E-03 -1.300461395E-01 -1.456677652E-04 4.506808605E-01
 7.380101969E-01 -1.000000000E-03 -1.300395567E-01 -1.505318683E-04 4.506526323E-01
 7.379909473E-01 -1.000000000E-03 -1.300332046E-01 -1.514684332E-04 4.506319832E-01
 7.378631013E-01 -1.000000000E-03 -1.299910172E-01 -1.585432111E-04 4.504861394E-01
 7.377113147E-01 -1.000000000E-03 -1.299409337E-01 -1.537452476E-04 4.503168726E-01
 7.376817225E-01 -1.000000000E-03 -1.299311695E-01 -1.528644594E-04 4.502851114E-01
 7.376562387E-01 -1.000000000E-03 -1.299227615E-01 -1.515116842E-04 4.502625223E-01
 7.374736453E-01 -1.000000000E-03 -1.298625190E-01 -1.421879967E-04 4.501027038E-01
 7.374121132E-01 -1.000000000E-03 -1.298422194E-01 -1.396785372E-04 4.500598534E-01
 7.372781974E-01 -1.000000000E-03 -1.297980421E-01 -1.348423221E-04 4.499555616E-01
 7.371970312E-01 -1.000000000E-03 -1.297712681E-01 -1.327066608E-04 4.498941517E-01
 7.370622335E-01 -1.000000000E-03 -1.297268054E-01 -1.297996057E-04 4.497932116E-01
 7.369712715E-01 -1.000000000E-03 -1.296968038E-01 -1.283012712E-04 4.497257193E-01
 7.368271716E-01 -1.000000000E-03 -1.296492793E-01 -1.267518818E-04 4.496175120E-01
 7.367288338E-01 -1.000000000E-03 -1.296168498E-01 -1.260546951E-04 4.495455164E-01
 7.365739457E-01 -1.000000000E-03 -1.295657754E-01 -1.255166140E-04 4.494308151E-01
 7.364682373E-01 -1.000000000E-03 -1.295309211E-01 -1.254206028E-04 4.493541084E-01
 7.363029245E-01 -1.000000000E-03 -1.294764189E-01 -1.255972411E-04 4.492339622E-01
 7.361894814E-01 -1.000000000E-03 -1.294390215E-01 -1.258573732E-04 4.491520790E-01
 7.360109631E-01 -1.000000000E-03 -1.293801774E-01 -1.264856528E-04 4.490220281E-01
 7.358889608E-01 -1.000000000E-03 -1.293399669E-01 -1.269541470E-04 4.489340207E-01
 7.356979775E-01 -1.000000000E-03 -1.292770279E-01 -1.277577179E-04 4.487956553E-01
 7.355671607E-01 -1.000000000E-03 -1.292339221E-01 -1.282995490E-04 4.487018951E-01
 7.353606453E-01 -1.000000000E-03 -1.291658803E-01 -1.292852703E-04 4.485528092E-01
 7.352199667E-01 -1.000000000E-03 -1.291195359E-01 -1.298447980E-04 4.484508204E-01
 7.349989271E-01 -1.000000000E-03 -1.290467268E-01 -1.307586163E-04 4.482910428E-01
 7.348480809E-01 -1.000000000E-03 -1.289970455E-01 -1.312909443E-04 4.481848177E-01
 7.346089114E-01 -1.000000000E-03 -1.289182851E-01 -1.323057535E-04 4.480127098E-01
 7.344464187E-01 -1.000000000E-03 -1.288647825E-01 -1.327879544E-04 4.478948947E-01
 7.341901907E-01 -1.000000000E-03 -1.287804279E-01 -1.335321076E-04 4.477134906E-01
 7.340152106E-01 -1.000000000E-03 -1.287228302E-01 -1.340398308E-04 4.475924170E-01
 7.337367246E-01 -1.000000000E-03 -1.286311749E-01 -1.350382649E-04 4.473958596E-01
 7.335459963E-01 -1.000000000E-03 -1.285684125E-01 -1.355703766E-04 4.472591769E-01
 7.332467417E-01 -1.000000000E-03 -1.284699525E-01 -1.363999474E-04 4.470474518E-01
 7.330386317E-01 -1.000000000E-03 -1.284014924E-01 -1.368667385E-04 4.469013630E-01
 7.327182331E-01 -1.000000000E-03 -1.282961105E-01 -1.376968562E-04 4.466756612E-01
 7.324922286E-01 -1.000000000E-03 -1.282217890E-01 -1.382332131E-04 4.465168368E-01
 7.321610188E-01 -1.000000000E-03 -1.281128885E-01 -1.390439714E-04 4.462842816E-01
 7.319195451E-01 -1.000000000E-03 -1.280335077E-01 -1.395670122E-04 4.461154556E-01
 7.315710526E-01 -1.000000000E-03 -1.279189662E-01 -1.404003259E-04 4.458718968E-01
 7.313193124E-01 -1.000000000E-03 -1.278362407E-01 -1.409394845E-04 4.456972933E-01
 7.309497241E-01 -1.000000000E-03 -1.277148117E-01 -1.417346512E-04 4.454405540E-01
 7.306712515E-01 -1.000000000E-03 -1.276233380E-01 -1.422942734E-04 4.452474717E-01
 7.302482716E-01 -1.000000000E-03 -1.274844254E-01 -1.430515476E-04 4.449549587E-01
 7.299564806E-01 -1.000000000E-03 -1.273886193E-01 -1.435236330E-04 4.447531181E-01
 7.294959270E-01 -1.000000000E-03 -1.272374365E-01 -1.442658427E-04 4.444359613E-01
 7.291865586E-01 -1.000000000E-03 -1.271359078E-01 -1.448061568E-04 4.442250513E-01
 7.286869739E-01 -1.000000000E-03 -1.269719942E-01 -1.457115467E-04 4.438817576E-01
 7.283572077E-01 -1.000000000E-03 -1.268638274E-01 -1.461615116E-04 4.436546235E-01
 7.278225792E-01 -1.000000000E-03 -1.266885102E-01 -1.468007410E-04 4.432875565E-01
 7.274702854E-01 -1.000000000E-03 -1.265730188E-01 -1.471725920E-04 4.430486176E-01
 7.268920789E-01 -1.000000000E-03 -1.263835215E-01 -1.477531139E-04 4.426542514E-01
 7.265140485E-01 -1.000000000E-03 -1.262596679E-01 -1.480683424E-04 4.423959297E-01
 7.258949307E-01 -1.000000000E-03 -1.260568894E-01 -1.484606303E-04 4.419779849E-01
 7.254896342E-01 -1.000000000E-03 -1.259241889E-01 -1.486494098E-04 4.417066366E-01
 7.248197658E-01 -1.000000000E-03 -1.257049356E-01 -1.490215072E-04 4.412531252E-01
 7.243841161E-01 -1.000000000E-03 -1.255623960E-01 -1.491376894E-04 4.409587284E-01
 7.236669971E-01 -1.000000000E-03 -1.253278457E-01 -1.492046256E-04 4.404759825E-01
 7.231994953E-01 -1.000000000E-03 -1.251749985E-01 -1.491401151E-04 4.401621512E-01
 -2.094498379E-01 -1.000000000E-03 3.035056312E-03 1.424333013E-03 8.332994050E-01
 -2.091133970E-01 -1.000000000E-03 2.852419592E-03 1.429317817E-03 8.312527957E-01
 -2.099447141E-01 -1.000000000E-03 3.305096593E-03 1.416980645E-03 8.363359145E-01
 -2.102700115E-01 -1.000000000E-03 3.483497403E-03 1.412007955E-03 8.383460507E-01
 -2.086038298E-01 -1.000000000E-03 2.577192366E-03 1.436865139E-03 8.281795741E-01
 -2.082592928E-01 -1.000000000E-03 2.392058211E-03 1.442041852E-03 8.261213984E-01
 -2.077353132E-01 -1.000000000E-03 2.111919471E-03 1.450086580E-03 8.230071540E-01
 -2.073802998E-01 -1.000000000E-03 1.923099067E-03 1.455683893E-03 8.209167632E-01
 -2.068435885E-01 -1.000000000E-03 1.639087419E-03 1.464290763E-03 8.177765390E-01
 -2.064813161E-01 -1.000000000E-03 1.448379672E-03 1.470195565E-03 8.156753510E-01
 -2.059310688E-01 -1.000000000E-03 1.160199533E-03 1.478850000E-03 8.125041861E-01
 -2.055578542E-01 -1.000000000E-03 9.657662546E-04 1.484711611E-03 8.103727647E-01
 -2.049941719E-01 -1.000000000E-03 6.736171681E-04 1.493582141E-03 8.071844339E-01
 -2.046117368E-01 -1.000000000E-03 4.764567646E-04 1.499818590E-03 8.050436599E-01
 -2.040327969E-01 -1.000000000E-03 1.795374948E-04 1.509068752E-03 8.018222985E-01
 -2.036364559E-01 -1.000000000E-03 -2.263660976E-05 1.515411781E-03 7.996476981E-01
 -2.030439794E-01 -1.000000000E-03 -3.232845653E-04 1.524473107E-03 7.964298793E-01
 -2.026352354E-01 -1.000000000E-03 -5.295773474E-04 1.531090792E-03 7.942213743E-01
 -2.020352101E-01 -1.000000000E-03 -8.308203148E-04 1.540030760E-03 7.910150891E-01
 -2.016193955E-01 -1.000000000E-03 -1.038465888E-03 1.546308495E-03 7.888227013E-01
 -2.010163727E-01 -1.000000000E-03 -1.338023554E-03 1.555169008E-03 7.856695519E-01
 -2.005857053E-01 -1.000000000E-03 -1.550820851E-03 1.561971126E-03 7.834341604E-01
 -1.999670661E-01 -1.000000000E-03 -1.854892976E-03 1.571355444E-03 7.802672888E-01
 -1.995303827E-01 -1.000000000E-03 -2.068382999E-03 1.578431381E-03 7.780532198E-01
 -1.988845489E-01 -1.000000000E-03 -2.382460194E-03 1.588829407E-03 7.748176486E-01
 -1.984321376E-01 -1.000000000E-03 -2.601273452E-03 1.596419628E-03 7.725843652E-01
 -1.977557033E-01 -1.000000000E-03 -2.926685343E-03 1.607228469E-03 7.692815419E-01
 -1.972908853E-01 -1.000000000E-03 -3.149065823E-03 1.615170731E-03 7.670357730E-01
 -1.965890749E-01 -1.000000000E-03 -3.483013460E-03 1.625965628E-03 7.636709435E-01
 -1.961094770E-01 -1.000000000E-03 -3.709954090E-03 1.633870664E-03 7.613919379E-01
 -1.953845392E-01 -1.000000000E-03 -4.051128435E-03 1.644546795E-03 7.579880979E-01
 -1.948925118E-01 -1.000000000E-03 -4.281402341E-03 1.652217954E-03 7.557076133E-01
 -1.941443920E-01 -1.000000000E-03 -4.629626511E-03 1.663438454E-03 7.522848173E-01
 -1.936355078E-01 -1.000000000E-03 -4.865159489E-03 1.671750945E-03 7.499815929E-01
 -1.928648235E-01 -1.000000000E-03 -5.219900840E-03 1.682878354E-03 7.465100548E-01
 -1.923428561E-01 -1.000000000E-03 -5.458794669E-03 1.690843998E-03 7.441873636E-01
 -1.915493522E-01 -1.000000000E-03 -5.819940184E-03 1.701350395E-03 7.406984414E-01
 -1.910102709E-01 -1.000000000E-03 -6.063875729E-03 1.708862239E-03 7.383571700E-01
 -1.901949189E-01 -1.000000000E-03 -6.430746203E-03 1.719239114E-03 7.348695869E-01
 -1.896432255E-01 -1.000000000E-03 -6.677545809E-03 1.726568835E-03 7.325380026E-01
 -1.888053930E-01 -1.000000000E-03 -7.050220133E-03 1.736882624E-03 7.290335083E-01
 -1.882365030E-01 -1.000000000E-03 -7.301784967E-03 1.744172293E-03 7.266824715E-01
 -1.873771224E-01 -1.000000000E-03 -7.679633629E-03 1.754234818E-03 7.231768499E-01
 -1.867952304E-01 -1.000000000E-03 -7.933977644E-03 1.761315976E-03 7.208338710E-01
 -1.859117946E-01 -1.000000000E-03 -8.317907582E-03 1.771169001E-03 7.173179053E-01
 -1.853109835E-01 -1.000000000E-03 -8.577464726E-03 1.778196968E-03 7.149614527E-01
 -1.844020997E-01 -1.000000000E-03 -8.967846153E-03 1.787938765E-03 7.114469518E-01
 -1.837861272E-01 -1.000000000E-03 -9.230847689E-03 1.794910311E-03 7.090999314E-01
 -1.828497490E-01 -1.000000000E-03 -9.628333529E-03 1.804808237E-03 7.055750269E-01
 -1.822132222E-01 -1.000000000E-03 -9.896917588E-03 1.811888652E-03 7.032134716E-01
 -1.812501968E-01 -1.000000000E-03 -1.030090487E-02 1.821916792E-03 6.996913988E-01
 -1.805980237E-01 -1.000000000E-03 -1.057285903E-02 1.829014358E-03 6.973355222E-01
 -1.796077238E-01 -1.000000000E-03 -1.098340674E-02 1.839094489E-03 6.937986696E-01
 -1.789342371E-01 -1.000000000E-03 -1.126093594E-02 1.846325125E-03 6.914234904E-01
 -1.779164546E-01 -1.000000000E-03 -1.167788256E-02 1.856361475E-03 6.878814002E-01
 -1.772256354E-01 -1.000000000E-03 -1.195917214E-02 1.863423628E-03 6.855103509E-01
 -2.369160256E-01 -1.000000000E-03 5.627466916E-02 8.168653835E-03 -1.546841277E+00
 -2.368385529E-01 -1.000000000E-03 5.632841194E-02 8.183193471E-03 -1.546203337E+00
 -2.367868370E-01 -1.000000000E-03 5.636412180E-02 8.188812625E-03 -1.545775021E+00
 -2.367078810E-01 -1.000000000E-03 5.641838997E-02 8.202748654E-03 -1.545093063E+00
 -2.366552131E-01 -1.000000000E-03 5.645442075E-02 8.207900871E-03 -1.544631590E+00
 -2.365751494E-01 -1.000000000E-03 5.650893986E-02 8.222076688E-03 -1.543919978E+00
 -2.365221138E-01 -1.000000000E-03 5.654488534E-02 8.227437889E-03 -1.543437927E+00
 -2.364409886E-01 -1.000000000E-03 5.659961347E-02 8.240659597E-03 -1.542681089E+00
 -2.363868602E-01 -1.000000000E-03 5.663595678E-02 8.245342887E-03 -1.542170672E+00
 -2.363052217E-01 -1.000000000E-03 5.669051608E-02 8.258945383E-03 -1.541392108E+00
 4.849106452E-01 -1.000000000E-03 -1.174112616E-01 1.144172221E-03 3.603264937E-01
 4.868849179E-01 -1.000000000E-03 -1.175474067E-01 1.141341159E-03 3.605531545E-01
 4.819301631E-01 -1.000000000E-03 -1.172046858E-01 1.148263438E-03 3.599928943E-01
 4.799710875E-01 -1.000000000E-03 -1.170682188E-01 1.151035173E-03 3.597801739E-01
 4.520399688E-01 -1.000000000E-03 -1.150632343E-01 1.190419116E-03 3.571047042E-01
 4.500688287E-01 -1.000000000E-03 -1.149175200E-01 1.193117963E-03 3.569418620E-01
 4.550216397E-01 -1.000000000E-03 -1.152825875E-01 1.186395110E-03 3.573579061E-01
 4.569804072E-01 -1.000000000E-03 -1.154259922E-01 1.183585185E-03 3.575282259E-01
 4.201769753E-01 -1.000000000E-03 -1.126384588E-01 1.233642639E-03 3.549368174E-01
 4.221460309E-01 -1.000000000E-03 -1.127926327E-01 1.230846250E-03 3.550415999E-01
 4.171932985E-01 -1.000000000E-03 -1.124037414E-01 1.237480471E-03 3.547879879E-01
 4.152366617E-01 -1.000000000E-03 -1.122490956E-01 1.240123685E-03 3.546920943E-01
 4.898843112E-01 -1.000000000E-03 -1.177531914E-01 1.137547177E-03 3.609107787E-01
 4.918462530E-01 -1.000000000E-03 -1.178871107E-01 1.134932255E-03 3.611501313E-01
 4.251436361E-01 -1.000000000E-03 -1.130262349E-01 1.226690205E-03 3.552120869E-01
 4.271017025E-01 -1.000000000E-03 -1.131781064E-01 1.223850141E-03 3.553290045E-01
 4.470702480E-01 -1.000000000E-03 -1.146947785E-01 1.196938553E-03 3.567032944E-01
 4.451119212E-01 -1.000000000E-03 -1.145486066E-01 1.199655239E-03 3.565518481E-01
 4.769652619E-01 -1.000000000E-03 -1.168577807E-01 1.155214279E-03 3.594589234E-01
 4.749918758E-01 -1.000000000E-03 -1.167189269E-01 1.158166790E-03 3.592504170E-01
 4.599869337E-01 -1.000000000E-03 -1.156450344E-01 1.179347816E-03 3.577960408E-01
 4.619660373E-01 -1.000000000E-03 -1.157885150E-01 1.176539086E-03 3.579750353E-01
 4.948565173E-01 -1.000000000E-03 -1.180915332E-01 1.131263240E-03 3.615204844E-01
 4.968359319E-01 -1.000000000E-03 -1.182252575E-01 1.128448356E-03 3.617689008E-01
 4.301063541E-01 -1.000000000E-03 -1.134100526E-01 1.219813126E-03 3.555177720E-01
 4.320894009E-01 -1.000000000E-03 -1.135624062E-01 1.217077406E-03 3.556443960E-01
 4.421024162E-01 -1.000000000E-03 -1.143228911E-01 1.203769742E-03 3.563257274E-01
 4.401254404E-01 -1.000000000E-03 -1.141738997E-01 1.206580279E-03 3.561832407E-01
 4.719664264E-01 -1.000000000E-03 -1.165049767E-01 1.162488521E-03 3.589358316E-01
 4.699888382E-01 -1.000000000E-03 -1.163644246E-01 1.165526239E-03 3.587370109E-01
 5.048732280E-01 -1.000000000E-03 -1.187625789E-01 1.117061648E-03 3.627891233E-01
 5.068439383E-01 -1.000000000E-03 -1.188929444E-01 1.114005608E-03 3.630488024E-01
 5.098871614E-01 -1.000000000E-03 -1.190931846E-01 1.109150852E-03 3.634663638E-01
 5.118405122E-01 -1.000000000E-03 -1.192210278E-01 1.106031631E-03 3.637469058E-01
 4.649964877E-01 -1.000000000E-03 -1.160071328E-01 1.172449811E-03 3.582544136E-01
 4.669572858E-01 -1.000000000E-03 -1.161478864E-01 1.169711735E-03 3.584405811E-01
 4.998765248E-01 -1.000000000E-03 -1.184295990E-01 1.124019922E-03 3.621524253E-01
 5.018386396E-01 -1.000000000E-03 -1.185607730E-01 1.121223828E-03 3.624013299E-01
 4.351232714E-01 -1.000000000E-03 -1.137943763E-01 1.213324019E-03 3.558425710E-01
 4.370827536E-01 -1.000000000E-03 -1.139434814E-01 1.210628390E-03 3.559736902E-01
 5.148689366E-01 -1.000000000E-03 -1.194181734E-01 1.101592605E-03 3.641939566E-01
 5.168027074E-01 -1.000000000E-03 -1.195433850E-01 1.098918571E-03 3.644764578E-01
 5.198256185E-01 -1.000000000E-03 -1.197380655E-01 1.095034920E-03 3.649165643E-01
 6.095349307E-01 -1.000000000E-03 -1.249253961E-01 9.464588969E-04 3.831022752E-01
 6.115048769E-01 -1.000000000E-03 -1.250262381E-01 9.428178539E-04 3.836328641E-01
 6.065341118E-01 -1.000000000E-03 -1.247706763E-01 9.518394466E-04 3.823049225E-01
 6.045760510E-01 -1.000000000E-03 -1.246690005E-01 9.557334101E-04 3.817918547E-01
 6.015687558E-01 -1.000000000E-03 -1.245117396E-01 9.613901694E-04 3.810230725E-01
 5.995878290E-01 -1.000000000E-03 -1.244074232E-01 9.651506916E-04 3.805303699E-01
 5.895761638E-01 -1.000000000E-03 -1.238714138E-01 9.828410633E-04 3.780917591E-01
 5.915417347E-01 -1.000000000E-03 -1.239778017E-01 9.792060894E-04 3.785600348E-01
 5.865366004E-01 -1.000000000E-03 -1.237057878E-01 9.881295849E-04 3.773896719E-01
 5.845725724E-01 -1.000000000E-03 -1.235980544E-01 9.917005125E-04 3.769473607E-01
 5.965501134E-01 -1.000000000E-03 -1.242463377E-01 9.703123356E-04 3.797810792E-01
 5.945963466E-01 -1.000000000E-03 -1.241420184E-01 9.736720723E-04 3.793019964E-01
 5.815546401E-01 -1.000000000E-03 -1.234314234E-01 9.968593982E-04 3.762825758E-01
 5.796082805E-01 -1.000000000E-03 -1.233232590E-01 1.000085904E-03 3.758545361E-01
 5.467096462E-01 -1.000000000E-03 -1.214129305E-01 1.053852746E-03 3.693010517E-01
 5.447360054E-01 -1.000000000E-03 -1.212934369E-01 1.056941543E-03 3.689484739E-01
 5.496894239E-01 -1.000000000E-03 -1.215922969E-01 1.049471395E-03 3.698361097E-01
 5.516501290E-01 -1.000000000E-03 -1.217096350E-01 1.046399453E-03 3.701923941E-01
 5.417351417E-01 -1.000000000E-03 -1.211106967E-01 1.061652175E-03 3.684227560E-01
 5.397772309E-01 -1.000000000E-03 -1.209907819E-01 1.064881927E-03 3.680882783E-01
 5.546529667E-01 -1.000000000E-03 -1.218882842E-01 1.041617125E-03 3.707505923E-01
 5.566317836E-01 -1.000000000E-03 -1.220053108E-01 1.038429392E-03 3.711228131E-01
 5.746234459E-01 -1.000000000E-03 -1.230437484E-01 1.008515057E-03 3.747646711E-01
 5.766036474E-01 -1.000000000E-03 -1.231552109E-01 1.004972342E-03 3.751949791E-01
 5.716214749E-01 -1.000000000E-03 -1.228736995E-01 1.013990358E-03 3.741232234E-01
 5.696597250E-01 -1.000000000E-03 -1.227618750E-01 1.017376543E-03 3.737152178E-01
 5.248095102E-01 -1.000000000E-03 -1.200562354E-01 1.087600514E-03 3.656578693E-01
 5.267651180E-01 -1.000000000E-03 -1.201801258E-01 1.084465832E-03 3.659633461E-01
 5.217870805E-01 -1.000000000E-03 -1.198637002E-01 1.092164930E-03 3.652047765E-01
 5.367634825E-01 -1.000000000E-03 -1.208051453E-01 1.069345165E-03 3.675816474E-01
 5.347753099E-01 -1.000000000E-03 -1.206819801E-01 1.072445369E-03 3.672557740E-01
 5.596498643E-01 -1.000000000E-03 -1.221827303E-01 1.033863582E-03 3.717075507E-01
 5.616147887E-01 -1.000000000E-03 -1.222975432E-01 1.030478015E-03 3.720950178E-01
 5.666315826E-01 -1.000000000E-03 -1.225881842E-01 1.022214219E-03 3.730975253E-01
 5.646606943E-01 -1.000000000E-03 -1.224744310E-01 1.025456248E-03 3.726995351E-01
 5.297895943E-01 -1.000000000E-03 -1.203706756E-01 1.079899217E-03 3.664435878E-01
 5.317452232E-01 -1.000000000E-03 -1.204932004E-01 1.076875994E-03 3.667605671E-01
 -2.454491941E-01 -1.000000000E-03 3.494799280E-02 -2.094102097E-03 5.048420267E-01
 -2.454653089E-01 -1.000000000E-03 3.499560606E-02 -2.090921372E-03 5.003052714E-01
 -2.454250088E-01 -1.000000000E-03 3.487722706E-02 -2.099064779E-03 5.115369138E-01
 -2.454087245E-01 -1.000000000E-03 3.483003519E-02 -2.101794069E-03 5.159693412E-01
 -2.453840403E-01 -1.000000000E-03 3.475917919E-02 -2.106024946E-03 5.225750533E-01
 -2.453673562E-01 -1.000000000E-03 3.471173733E-02 -2.108286897E-03 5.269681494E-01
 -2.451954558E-01 -1.000000000E-03 3.424217420E-02 -2.123473035E-03 5.690644781E-01
 -2.452132047E-01 -1.000000000E-03 3.428914853E-02 -2.122933521E-03 5.649666942E-01
 -2.452395686E-01 -1.000000000E-03 3.435953038E-02 -2.121320860E-03 5.587802180E-01
 -2.452569137E-01 -1.000000000E-03 3.440624196E-02 -2.120336056E-03 5.546408832E-01
 -2.450129131E-01 -1.000000000E-03 3.377656864E-02 -2.122820506E-03 6.083720358E-01
 -2.450317372E-01 -1.000000000E-03 3.382320288E-02 -2.123756122E-03 6.045432804E-01
 -2.450596352E-01 -1.000000000E-03 3.389287151E-02 -2.124423620E-03 5.987788911E-01
 -2.450780537E-01 -1.000000000E-03 3.393923925E-02 -2.124957531E-03 5.949115497E-01
 -2.449847422E-01 -1.000000000E-03 3.370732849E-02 -2.121703891E-03 6.140148867E-01
 -2.449657936E-01 -1.000000000E-03 3.366111760E-02 -2.120490312E-03 6.177516044E-01
 -2.449371433E-01 -1.000000000E-03 3.359178695E-02 -2.118766152E-03 6.233135029E-01
 -2.449177893E-01 -1.000000000E-03 3.354531183E-02 -2.117142996E-03 6.270128579E-01
 -2.448888894E-01 -1.000000000E-03 3.347644036E-02 -2.114993494E-03 6.324526799E-01
 -2.448694005E-01 -1.000000000E-03 3.343034477E-02 -2.113116160E-03 6.360621720E-01
 -2.448400385E-01 -1.000000000E-03 3.336141498E-02 -2.110414895E-03 6.414190273E-01
 -2.448201756E-01 -1.000000000E-03 3.331513023E-02 -2.108173366E-03 6.449886198E-01
 -2.447905141E-01 -1.000000000E-03 3.324651876E-02 -2.105097764E-03 6.502388082E-01
 -2.447705741E-01 -1.000000000E-03 3.320072878E-02 -2.102621556E-03 6.537139820E-01
 -2.447201092E-01 -1.000000000E-03 3.308600685E-02 -2.096157274E-03 6.623240124E-01
 -2.447404370E-01 -1.000000000E-03 3.313202017E-02 -2.098993430E-03 6.588869296E-01
 -2.446897202E-01 -1.000000000E-03 3.301770583E-02 -2.092170841E-03 6.673863386E-01
 -2.446693040E-01 -1.000000000E-03 3.297214022E-02 -2.089130942E-03 6.707347168E-01
 -2.446384345E-01 -1.000000000E-03 3.290372372E-02 -2.084601211E-03 6.757218368E-01
 -2.446176553E-01 -1.000000000E-03 3.285798862E-02 -2.081223211E-03 6.790314851E-01
 -2.440709461E-01 -1.000000000E-03 3.173400473E-02 -1.967671334E-03 7.536342119E-01
 -2.440939499E-01 -1.000000000E-03 3.177859549E-02 -1.973440977E-03 7.509134954E-01
 -2.440365161E-01 -1.000000000E-03 3.166765412E-02 -1.959224693E-03 7.576473577E-01
 -2.440135699E-01 -1.000000000E-03 3.162368728E-02 -1.953442141E-03 7.602831685E-01
 -2.441281811E-01 -1.000000000E-03 3.184534113E-02 -1.981725776E-03 7.468063629E-01
 -2.441508485E-01 -1.000000000E-03 3.188980203E-02 -1.987201581E-03 7.440462086E-01
 -2.441846395E-01 -1.000000000E-03 3.195647713E-02 -1.995027989E-03 7.398689414E-01
 -2.442072622E-01 -1.000000000E-03 3.200138510E-02 -2.000395865E-03 7.370313595E-01
 -2.442408718E-01 -1.000000000E-03 3.206851006E-02 -2.008007070E-03 7.327533832E-01
 -2.442630755E-01 -1.000000000E-03 3.211312723E-02 -2.013059230E-03 7.298844319E-01
 -2.444056592E-01 -1.000000000E-03 3.240503896E-02 -2.043018138E-03 7.106218663E-01
 -2.444272903E-01 -1.000000000E-03 3.245017675E-02 -2.047517964E-03 7.075678276E-01
 -2.444595581E-01 -1.000000000E-03 3.251794836E-02 -2.053617621E-03 7.029476763E-01
 -2.444811101E-01 -1.000000000E-03 3.256351105E-02 -2.057738211E-03 6.998094990E-01
 -2.443731443E-01 -1.000000000E-03 3.233762332E-02 -2.036608415E-03 7.151483586E-01
 -2.443514166E-01 -1.000000000E-03 3.229285846E-02 -2.032044498E-03 7.181246308E-01
 -2.442962670E-01 -1.000000000E-03 3.218023564E-02 -2.020205005E-03 7.255324375E-01
 -2.443185477E-01 -1.000000000E-03 3.222556569E-02 -2.025076050E-03 7.225660574E-01
 -2.435949377E-01 -1.000000000E-03 3.085406198E-02 -1.840087968E-03 8.034531082E-01
 -2.436195347E-01 -1.000000000E-03 3.089770926E-02 -1.847087073E-03 8.011512364E-01
 -2.436562812E-01 -1.000000000E-03 3.096325857E-02 -1.857451500E-03 7.976630316E-01
 -2.436803040E-01 -1.000000000E-03 3.100633481E-02 -1.864180260E-03 7.953477498E-01
 -2.453423457E-01 -1.000000000E-03 3.464127850E-02 -2.111887295E-03 5.334439807E-01
 -2.453255156E-01 -1.000000000E-03 3.459429893E-02 -2.113728225E-03 5.377309036E-01
 -2.451687976E-01 -1.000000000E-03 3.417222119E-02 -2.124568540E-03 5.751235097E-01
 -2.451509207E-01 -1.000000000E-03 3.412570540E-02 -2.124760953E-03 5.791221795E-01
 -2.445865184E-01 -1.000000000E-03 3.278992487E-02 -2.076347351E-03 6.839126398E-01
 -2.445654717E-01 -1.000000000E-03 3.274423017E-02 -2.072601925E-03 6.871626491E-01
 -2.445340566E-01 -1.000000000E-03 3.267648265E-02 -2.067381522E-03 6.919413834E-01
 -2.445129591E-01 -1.000000000E-03 3.263128735E-02 -2.063541844E-03 6.951004117E-01
 -2.452999876E-01 -1.000000000E-03 3.452368645E-02 -2.116637103E-03 5.441252203E-01
 -2.452827773E-01 -1.000000000E-03 3.447650964E-02 -2.118034878E-03 5.483683551E-01
 -2.435580544E-01 -1.000000000E-03 3.078894944E-02 -1.829645209E-03 8.068533867E-01
 -2.435333137E-01 -1.000000000E-03 3.074549694E-02 -1.822565942E-03 8.091009365E-01
 -2.451237555E-01 -1.000000000E-03 3.405561154E-02 -2.125217641E-03 5.851016977E-01
 -2.451054862E-01 -1.000000000E-03 3.400886221E-02 -2.125002467E-03 5.890600934E-01
 -2.439785943E-01 -1.000000000E-03 3.155705680E-02 -1.944629137E-03 7.642417498E-01
 -2.439555726E-01 -1.000000000E-03 3.151344627E-02 -1.938772949E-03 7.668137677E-01
 -2.438969674E-01 -1.000000000E-03 3.140330214E-02 -1.923632041E-03 7.732211298E-01
 -2.439198422E-01 -1.000000000E-03 3.144614740E-02 -1.929666076E-03 7.707427602E-01
 -2.438606393E-01 -1.000000000E-03 3.133563929E-02 -1.914018716E-03 7.770956921E-01
 -2.438374618E-01 -1.000000000E-03 3.129270886E-02 -1.907735322E-03 7.795313566E-01
 -2.437168542E-01 -1.000000000E-03 3.107222311E-02 -1.874318003E-03 7.917735315E-01
 -2.437406110E-01 -1.000000000E-03 3.111527571E-02 -1.881048278E-03 7.894169446E-01
 -2.434959586E-01 -1.000000000E-03 3.068022370E-02 -1.811735624E-03 8.124438452E-01
 -2.434707614E-01 -1.000000000E-03 3.063641900E-02 -1.804374214E-03 8.146670153E-01
 -2.434331018E-01 -1.000000000E-03 3.057127807E-02 -1.793468205E-03 8.179397326E-01
 -2.434077554E-01 -1.000000000E-03 3.052765597E-02 -1.786073627E-03 8.201110370E-01
 -2.438006154E-01 -1.000000000E-03 3.122483717E-02 -1.897772177E-03 7.833480309E-01
 -2.437774784E-01 -1.000000000E-03 3.118245165E-02 -1.891316011E-03 7.857082340E-01
 -2.433694811E-01 -1.000000000E-03 3.046211248E-02 -1.774838516E-03 8.233407985E-01
 -2.433436047E-01 -1.000000000E-03 3.041802185E-02 -1.767162375E-03 8.254922428E-01
 -2.433048429E-01 -1.000000000E-03 3.035230237E-02 -1.755759609E-03 8.286683599E-01
 -2.432787179E-01 -1.000000000E-03 3.030822777E-02 -1.748051111E-03 8.307751758E-01
 -2.432392084E-01 -1.000000000E-03 3.024189984E-02 -1.736237855E-03 8.339139063E-01
 -2.432124800E-01 -1.000000000E-03 3.019725122E-02 -1.728228111E-03 8.360066220E-01
 -2.431723862E-01 -1.000000000E-03 3.013060315E-02 -1.716267176E-03 8.390971992E-01
 -2.431453598E-01 -1.000000000E-03 3.008589763E-02 -1.708174553E-03 8.411481910E-01
 -2.431044745E-01 -1.000000000E-03 3.001859626E-02 -1.695765180E-03 8.442035695E-01
 -2.430768153E-01 -1.000000000E-03 2.997328983E-02 -1.687381397E-03 8.462393807E-01
 -2.430353313E-01 -1.000000000E-03 2.990566690E-02 -1.674835511E-03 8.492435722E-01
 -2.430073656E-01 -1.000000000E-03 2.986030169E-02 -1.666398782E-03 8.512388894E-01
 -2.429650762E-01 -1.000000000E-03 2.979203127E-02 -1.653505884E-03 8.542076191E-01
 -2.429364643E-01 -1.000000000E-03 2.974606578E-02 -1.644750946E-03 8.561857010E-01
 -2.428935677E-01 -1.000000000E-03 2.967748154E-02 -1.631685092E-03 8.591043292E-01
 -2.428646469E-01 -1.000000000E-03 2.963146463E-02 -1.622915965E-03 8.610391749E-01
 -2.428209203E-01 -1.000000000E-03 2.956222122E-02 -1.609473314E-03 8.639175663E-01
 -2.427913327E-01 -1.000000000E-03 2.951559304E-02 -1.600430009E-03 8.658362707E-01
 -2.427469580E-01 -1.000000000E-03 2.944599263E-02 -1.586892831E-03 8.686676895E-01
 -2.427170368E-01 -1.000000000E-03 2.939928573E-02 -1.577822419E-03 8.705440096E-01
 -2.426717657E-01 -1.000000000E-03 2.932895115E-02 -1.563899959E-03 8.733395701E-01
 -2.426411325E-01 -1.000000000E-03 2.928158530E-02 -1.554519608E-03 8.751995199E-01
 -2.425951310E-01 -1.000000000E-03 2.921079070E-02 -1.540396567E-03 8.779450627E-01
 -2.425641154E-01 -1.000000000E-03 2.916328451E-02 -1.530950519E-03 8.797642683E-01
 -2.425171568E-01 -1.000000000E-03 2.909169501E-02 -1.516387865E-03 8.824722237E-01
 -2.424853788E-01 -1.000000000E-03 2.904347824E-02 -1.506669442E-03 8.842741090E-01