VARIABLES = Nnode C<sub>D</sub>  CDp  CDv C<sub>L</sub>  Pitch 
ZONE T = "WOLF, adapt lift, SA-QCR2000-R_Crot_1.0"
40608   2.291514e-02 1.921080e-02 3.704336e-03 1.789151e-01 9.780427e-03 
80391   2.182213e-02 1.545495e-02 6.367179e-03 1.964299e-01 7.805353e-03 
158061  1.968030e-02 1.149673e-02 8.183569e-03 2.238568e-01 1.040369e-02 
318227  2.069028e-02 1.105491e-02 9.635370e-03 2.251197e-01 1.047537e-02 
636129  2.098957e-02 1.083665e-02 1.015292e-02 2.250548e-01 1.072366e-02 
1277363 2.101838e-02 1.072960e-02 1.028878e-02 2.250334e-01 1.083003e-02 
2548539 2.110443e-02 1.070107e-02 1.040336e-02 2.251402e-01 1.088845e-02 
5045060 2.124188e-02 1.067939e-02 1.056249e-02 2.252332e-01 1.097430e-02 
