TITLE     = "Surface mesh and solution"
VARIABLES = "x"
"y"
"z"
"cfx"
"Cp"
ZONE T="CFD++, HM Y=-0.001"
STRANDID=0, SOLUTIONTIME=0
Nodes=523, Elements=522, ZONETYPE=FELineSeg
DATAPACKING=POINT
DT=(DOUBLE DOUBLE DOUBLE DOUBLE DOUBLE )
0.0783976990	-0.0009999500	0.0470208600	0.0020432600	-0.2279330300
0.0924503730	-0.0009999500	0.0443767310	0.0019355045	-0.2048898000
0.0964904950	-0.0009999500	0.0436013150	0.0019131654	-0.1984434300
0.1108998900	-0.0009999500	0.0407810770	0.0018129301	-0.1758456800
0.1155788200	-0.0009999500	0.0398480560	0.0017832645	-0.1686125200
0.1298714600	-0.0009999500	0.0369461510	0.0016880461	-0.1471601100
0.1343070000	-0.0009999500	0.0360304710	0.0016662555	-0.1406134700
0.1486535100	-0.0009999500	0.0330204220	0.0015738084	-0.1195049400
0.1535235000	-0.0009999500	0.0319828610	0.0015595319	-0.1123011000
0.1679966200	-0.0009999500	0.0288526960	0.0014812462	-0.0916023480
0.1725486200	-0.0009999500	0.0278543830	0.0014539319	-0.0853073450
0.1872415700	-0.0009999500	0.0245880690	0.0013704968	-0.0655461850
0.1914575700	-0.0009999500	0.0236388650	0.0013482321	-0.0600297340
0.2061155300	-0.0009999500	0.0202981140	0.0012703760	-0.0409036840
0.2107911600	-0.0009999500	0.0192196950	0.0012423917	-0.0348971080
0.2252618800	-0.0009999500	0.0158444850	0.0011660244	-0.0164353900
0.2296908300	-0.0009999500	0.0148001720	0.0011449939	-0.0108911350
0.2440219100	-0.0009999500	0.0113869430	0.0010724147	0.0067454064
0.2481420800	-0.0009999500	0.0103957630	0.0010593660	0.0117693160
0.2617690000	-0.0009999500	0.0070888749	0.0009926626	0.0279526800
0.2664932000	-0.0009999500	0.0059316787	0.0009802299	0.0334321190
0.2796071200	-0.0009999500	0.0026936634	0.0009478981	0.0485545690
0.2846557200	-0.0009999500	0.0014360569	0.0009387451	0.0541786100
0.2968762800	-0.0009999500	-0.0016295729	0.0009055292	0.0674801250
0.3019652700	-0.0009999500	-0.0029163004	0.0008846586	0.0729794730
0.3128907100	-0.0009999500	-0.0056962185	0.0008447941	0.0848465860
0.3180521400	-0.0009999500	-0.0070181983	0.0008316909	0.0904145390
0.3286709200	-0.0009999500	-0.0097556440	0.0008066537	0.1014916500
0.3341968100	-0.0009999500	-0.0111882870	0.0007987017	0.1072493100
0.3455047000	-0.0009999500	-0.0141402760	0.0007693920	0.1189074700
0.3509103400	-0.0009999500	-0.0155594100	0.0007562309	0.1243685100
0.3632363100	-0.0009999500	-0.0188170600	0.0007046573	0.1365791900
0.3683539600	-0.0009999500	-0.0201777950	0.0006832811	0.1414999700
0.3813990400	-0.0009999500	-0.0236678400	0.0006366004	0.1539339600
0.3864692200	-0.0009999500	-0.0250326730	0.0006213960	0.1587034800
0.3998572800	-0.0009999500	-0.0286580470	0.0005762768	0.1709509600
0.4057646400	-0.0009999500	-0.0302676150	0.0005686570	0.1763093600
0.4189554800	-0.0009999500	-0.0338830580	0.0005387610	0.1881167900
0.4251597200	-0.0009999500	-0.0355937030	0.0005288742	0.1936716000
0.4383191500	-0.0009999500	-0.0392432290	0.0005069898	0.2056167000
0.4444472200	-0.0009999500	-0.0409523320	0.0005011079	0.2111455400
0.4578858900	-0.0009999500	-0.0447219240	0.0004854853	0.2231194700
0.4631039200	-0.0009999500	-0.0461933280	0.0004818236	0.2277095800
0.4764300000	-0.0009999500	-0.0499712120	0.0004520726	0.2390925600
0.4810652700	-0.0009999500	-0.0512918350	0.0004411127	0.2429996600
0.4944048200	-0.0009999500	-0.0551116690	0.0003988818	0.2543250300
0.4985152500	-0.0009999500	-0.0562943740	0.0003872140	0.2578488900
0.5119306400	-0.0009999500	-0.0601732020	0.0003475015	0.2693232900
0.5167831200	-0.0009999500	-0.0615832170	0.0003358681	0.2734009000
0.5303510400	-0.0009999500	-0.0655452460	0.0002990687	0.2846498200
0.5357211200	-0.0009999500	-0.0671215580	0.0002858740	0.2890512900
0.5495743200	-0.0009999500	-0.0712085740	0.0002561750	0.3004503800
0.5549856400	-0.0009999500	-0.0728134210	0.0002453241	0.3049453200
0.5688243500	-0.0009999500	-0.0769387410	0.0002154949	0.3164519100
0.5743629300	-0.0009999500	-0.0785982830	0.0002067047	0.3210661700
0.5879231100	-0.0009999500	-0.0826826840	0.0001797899	0.3324557800
0.5932004500	-0.0009999500	-0.0842802670	0.0001695174	0.3368797600
0.6066385500	-0.0009999500	-0.0883692650	0.0001371330	0.3481004500
0.6112349600	-0.0009999500	-0.0897747950	0.0001272606	0.3519646800
0.6245309700	-0.0009999500	-0.0938606860	0.0000922888	0.3630503700
0.6293426200	-0.0009999500	-0.0953469280	0.0000822768	0.3669825200
0.6424589200	-0.0009999500	-0.0994180220	0.0000480458	0.3775849300
0.6468884900	-0.0009999500	-0.1008000200	0.0000391234	0.3811309900
0.6594893900	-0.0009999500	-0.1047496400	0.0000065845	0.3910590400
0.6639728000	-0.0009999500	-0.1061621200	-0.0000007743	0.3945755700
0.6753016100	-0.0009999500	-0.1097467300	-0.0000227457	0.4035412700
0.6791738300	-0.0009999500	-0.1109777500	-0.0000267886	0.4065698400
0.6893116200	-0.0009999500	-0.1142133100	-0.0000407287	0.4141115200
0.6923741100	-0.0009999500	-0.1151947000	-0.0000447023	0.4162805400
0.7015601400	-0.0009999500	-0.1181494300	-0.0000650443	0.4227154900
0.7046238200	-0.0009999500	-0.1191380200	-0.0000712407	0.4248317500
0.7106116400	-0.0009999500	-0.1210786200	-0.0000859407	0.4288561900
0.7135992100	-0.0009999500	-0.1220461700	-0.0000923809	0.4308922300
0.7144821300	-0.0009999500	-0.1223332400	-0.0000947236	0.4314693800
0.7204740000	-0.0009999500	-0.1242850600	-0.0001094539	0.4354528500
0.7208778900	-0.0009999500	-0.1244166000	-0.0001102033	0.4357225600
0.7209360600	-0.0009999500	-0.1244356000	-0.0001103010	0.4357584700
0.7256075700	-0.0009999500	-0.1259627800	-0.0001207595	0.4386733200
0.7258904000	-0.0009999500	-0.1260554200	-0.0001211419	0.4388599700
0.7289707100	-0.0009999500	-0.1270650900	-0.0001221936	0.4409222300
0.7293911600	-0.0009999500	-0.1272030900	-0.0001218171	0.4411935500
0.7316624500	-0.0009999500	-0.1279490100	-0.0001185027	0.4426213500
0.7320358200	-0.0009999500	-0.1280717600	-0.0001181638	0.4428630500
0.7336498500	-0.0009999500	-0.1286025900	-0.0001159417	0.4439117600
0.7340105800	-0.0009999500	-0.1287213300	-0.0001154704	0.4441436200
0.7352295500	-0.0009999500	-0.1291226900	-0.0001147243	0.4449264100
0.7355094600	-0.0009999500	-0.1292149100	-0.0001162673	0.4451038500
0.7363827800	-0.0009999500	-0.1295027600	-0.0001254536	0.4456342500
0.7366073700	-0.0009999500	-0.1295768000	-0.0001295866	0.4457965500
0.7373283500	-0.0009999500	-0.1298145800	-0.0001328558	0.4463915800
0.7374836200	-0.0009999500	-0.1298658100	-0.0001331038	0.4465551100
0.7376690500	-0.0009999500	-0.1299269900	-0.0000525085	0.4468120600
0.7381103000	-0.0009999500	-0.1300726100	0.0001495090	0.4472759100
0.7384443900	-0.0009999500	-0.1301828600	0.0006981837	0.4468128700
0.7386058000	-0.0009999500	-0.1302361300	0.0009005552	0.4466292600
0.7384001600	-0.0009999500	-0.1302299100	0.0008586267	0.4462662600
0.7380738900	-0.0009999500	-0.1302200300	0.0007319485	0.4456657200
0.7376658900	-0.0009999500	-0.1302076400	0.0005900477	0.4453696000
0.7374235400	-0.0009999500	-0.1302002800	0.0004983710	0.4451129100
0.7372526500	-0.0009999500	-0.1301951000	0.0005051186	0.4448638600
0.7365038400	-0.0009999500	-0.1301722500	0.0005239965	0.4441179000
0.7362627400	-0.0009999500	-0.1301648800	0.0005278303	0.4438345100
0.7353492400	-0.0009999500	-0.1301368200	0.0005413642	0.4427885700
0.7350505000	-0.0009999500	-0.1301276100	0.0005438851	0.4424373500
0.7337709100	-0.0009999500	-0.1300879600	0.0005495677	0.4409910700
0.7333903300	-0.0009999500	-0.1300761300	0.0005515533	0.4405547400
0.7316919000	-0.0009999500	-0.1300229100	0.0005684405	0.4386330200
0.7313005900	-0.0009999500	-0.1300106000	0.0005717392	0.4382103400
0.7289118800	-0.0009999500	-0.1299347400	0.0005850174	0.4357541500
0.7284724100	-0.0009999500	-0.1299207100	0.0005872957	0.4353023800
0.7252343900	-0.0009999500	-0.1298160000	0.0006140816	0.4320980000
0.7249435800	-0.0009999500	-0.1298065300	0.0006164817	0.4318247100
0.7199734400	-0.0009999500	-0.1296419500	0.0006503123	0.4277203100
0.7199272500	-0.0009999500	-0.1296404000	0.0006508215	0.4276842500
0.7196357800	-0.0009999500	-0.1296304200	0.0006534006	0.4274625200
0.7130730700	-0.0009999500	-0.1294060500	0.0007118955	0.4224312000
0.7118184600	-0.0009999500	-0.1293622300	0.0007174621	0.4215729500
0.7032077300	-0.0009999500	-0.1290534900	0.0007514045	0.4160434000
0.7017350800	-0.0009999500	-0.1290008300	0.0007556399	0.4150921700
0.7013429400	-0.0009999500	-0.1289863400	0.0007575972	0.4148710700
0.6899272800	-0.0009999500	-0.1285550100	0.0007940759	0.4087912400
0.6877110600	-0.0009999500	-0.1284686300	0.0007999880	0.4077257200
0.6761621800	-0.0009999500	-0.1280059500	0.0008316339	0.4025904800
0.6726329300	-0.0009999500	-0.1278602500	0.0008418014	0.4011080000
0.6602290300	-0.0009999500	-0.1273318800	0.0008709297	0.3961963400
0.6556701100	-0.0009999500	-0.1271317800	0.0008823747	0.3945040400
0.6423498400	-0.0009999500	-0.1265277600	0.0009277990	0.3899433300
0.6377317900	-0.0009999500	-0.1263122100	0.0009408971	0.3884834100
0.6240004300	-0.0009999500	-0.1256511100	0.0009670255	0.3845232100
0.6189730800	-0.0009999500	-0.1254021700	0.0009794667	0.3831792800
0.6050779200	-0.0009999500	-0.1246939700	0.0010202328	0.3795525100
0.6002779600	-0.0009999500	-0.1244426700	0.0010295492	0.3783426600
0.5862516800	-0.0009999500	-0.1236889500	0.0010568292	0.3750895600
0.5807461700	-0.0009999500	-0.1233852300	0.0010626121	0.3738972800
0.5666068200	-0.0009999500	-0.1225854700	0.0010724973	0.3709950100
0.5608346500	-0.0009999500	-0.1222506100	0.0010776806	0.3699154600
0.5464196200	-0.0009999500	-0.1213940400	0.0010925668	0.3673647600
0.5407857300	-0.0009999500	-0.1210513200	0.0010995472	0.3664345400
0.5263701700	-0.0009999500	-0.1201537700	0.0011184320	0.3643602400
0.5207848000	-0.0009999500	-0.1197983500	0.0011284174	0.3636411700
0.5066800100	-0.0009999500	-0.1188809400	0.0011630449	0.3618427200
0.5016378800	-0.0009999500	-0.1185462700	0.0011713544	0.3611655500
0.4877049900	-0.0009999500	-0.1176028500	0.0012066352	0.3593435900
0.4834377200	-0.0009999500	-0.1173083700	0.0012190119	0.3588628200
0.4695976700	-0.0009999500	-0.1163355500	0.0012428325	0.3575243900
0.4647879300	-0.0009999500	-0.1159910000	0.0012466904	0.3571026600
0.4509770000	-0.0009999500	-0.1149835400	0.0012537019	0.3560674800
0.4455650200	-0.0009999500	-0.1145811300	0.0012541536	0.3557049900
0.4316408600	-0.0009999500	-0.1135265800	0.0012645160	0.3549232800
0.4253120100	-0.0009999500	-0.1130377700	0.0012829545	0.3546092200
0.4116046100	-0.0009999500	-0.1119590000	0.0013136024	0.3539234700
0.4053131000	-0.0009999500	-0.1114543900	0.0013285540	0.3536860300
0.3917082500	-0.0009999500	-0.1103425600	0.0013449551	0.3533657800
0.3855174200	-0.0009999500	-0.1098272100	0.0013444046	0.3532663900
0.3717132200	-0.0009999500	-0.1086563700	0.0013673494	0.3532092600
0.3666832100	-0.0009999500	-0.1082222100	0.0013655578	0.3532196900
0.3531100500	-0.0009999500	-0.1070298000	0.0013746633	0.3533393400
0.3481157400	-0.0009999500	-0.1065832900	0.0013813468	0.3534787600
0.3351708900	-0.0009999500	-0.1054067200	0.0014038183	0.3539333600
0.3297393900	-0.0009999500	-0.1049038700	0.0014104927	0.3541216000
0.3179411900	-0.0009999500	-0.1037953700	0.0014233716	0.3545233300
0.3122565200	-0.0009999500	-0.1032514800	0.0014233610	0.3547502800
0.3012983800	-0.0009999500	-0.1021879200	0.0014414559	0.3554913100
0.2958930100	-0.0009999500	-0.1016546100	0.0014531362	0.3559295800
0.2848366800	-0.0009999500	-0.1005462800	0.0014850454	0.3568127800
0.2792633500	-0.0009999500	-0.0999790800	0.0015062306	0.3572550100
0.2670482100	-0.0009999500	-0.0987125190	0.0015341795	0.3584118200
0.2612980000	-0.0009999500	-0.0981067420	0.0015358684	0.3590507800
0.2482650400	-0.0009999500	-0.0967059360	0.0015366582	0.3606938700
0.2431274800	-0.0009999500	-0.0961442810	0.0015250475	0.3613978900
0.2293211500	-0.0009999500	-0.0946043660	0.0015125022	0.3631660900
0.2250036200	-0.0009999500	-0.0941141320	0.0015102720	0.3637479800
0.2103322600	-0.0009999500	-0.0924142520	0.0015240516	0.3657343100
0.2058713700	-0.0009999500	-0.0918871980	0.0015301623	0.3664013100
0.1910084500	-0.0009999500	-0.0900946410	0.0015518581	0.3690606700
0.1864065700	-0.0009999500	-0.0895281140	0.0015662130	0.3699685600
0.1714105300	-0.0009999500	-0.0876425360	0.0016055860	0.3731682900
0.1671952300	-0.0009999500	-0.0871012060	0.0016186297	0.3741299500
0.1522033500	-0.0009999500	-0.0851347000	0.0016574163	0.3777991800
0.1477005900	-0.0009999500	-0.0845310240	0.0016651158	0.3789579600
0.1328956500	-0.0009999500	-0.0825022830	0.0016963467	0.3829124000
0.1281179000	-0.0009999500	-0.0818325800	0.0017045062	0.3842071300
0.1135122500	-0.0009999500	-0.0797390640	0.0017330552	0.3883834800
0.1090626900	-0.0009999500	-0.0790865640	0.0017387933	0.3897420200
0.0946040450	-0.0009999500	-0.0769178570	0.0017461453	0.3944995400
0.0898681280	-0.0009999500	-0.0761905610	0.0017536964	0.3961373600
0.0753138810	-0.0009999500	-0.0739022200	0.0017600917	0.4013137200
0.0711501320	-0.0009999500	-0.0732317860	0.0017728706	0.4029054000
0.0568224530	-0.0009999500	-0.0708701160	0.0017849449	0.4086622900
0.0525789820	-0.0009999500	-0.0701535490	0.0017929259	0.4105478500
0.0388245510	-0.0009999500	-0.0677750710	0.0018187218	0.4170087600
0.0343471060	-0.0009999500	-0.0669816580	0.0018172341	0.4191989900
0.0203931160	-0.0009999500	-0.0644459720	0.0018655816	0.4263009100
0.0162145250	-0.0009999500	-0.0636672080	0.0018732143	0.4285206500
0.0017358436	-0.0009999500	-0.0608965200	0.0018980450	0.4367042800
-0.0027124465	-0.0009999500	-0.0600221010	0.0018988085	0.4393468800
-0.0167752650	-0.0009999500	-0.0571802520	0.0018942474	0.4483373500
-0.0211537950	-0.0009999500	-0.0562706480	0.0018980242	0.4513348300
-0.0348941420	-0.0009999500	-0.0533356260	0.0019178710	0.4612645200
-0.0385812600	-0.0009999500	-0.0525261690	0.0019292016	0.4641717700
-0.0519368280	-0.0009999500	-0.0495116080	0.0019585663	0.4756142500
-0.0556420980	-0.0009999500	-0.0486512850	0.0019648515	0.4789983900
-0.0686318200	-0.0009999500	-0.0455495450	0.0019773156	0.4913239800
-0.0719926360	-0.0009999500	-0.0447233620	0.0019748236	0.4946970900
-0.0845285510	-0.0009999500	-0.0415547420	0.0019799896	0.5082781900
-0.0879614650	-0.0009999500	-0.0406600530	0.0019758848	0.5123262400
-0.0999006930	-0.0009999500	-0.0374609830	0.0019875881	0.5274372700
-0.1028702700	-0.0009999500	-0.0366403610	0.0019928762	0.5314873500
-0.1138258900	-0.0009999500	-0.0335317330	0.0019843112	0.5474642500
-0.1165774100	-0.0009999500	-0.0327264960	0.0019868063	0.5517771200
-0.1266492800	-0.0009999500	-0.0297026060	0.0019775645	0.5683826800
-0.1288416400	-0.0009999500	-0.0290248190	0.0019755559	0.5723282700
-0.1378570200	-0.0009999500	-0.0261685400	0.0019658171	0.5899549700
-0.1401465200	-0.0009999500	-0.0254216470	0.0019697307	0.5947508200
-0.1481967700	-0.0009999500	-0.0227326490	0.0019652804	0.6121787400
-0.1501518900	-0.0009999500	-0.0220613010	0.0019611301	0.6166781800
-0.1572539200	-0.0009999500	-0.0195660440	0.0019255121	0.6341428200
-0.1591155400	-0.0009999500	-0.0188942680	0.0019145149	0.6390734900
-0.1655212000	-0.0009999500	-0.0165304090	0.0018783184	0.6569362300
-0.1670882700	-0.0009999500	-0.0159372890	0.0018703123	0.6615688200
-0.1728141300	-0.0009999500	-0.0137223690	0.0018206680	0.6794046800
-0.1743076900	-0.0009999500	-0.0131299390	0.0018122120	0.6843644400
-0.1795121700	-0.0009999500	-0.0110209530	0.0017705345	0.7022720600
-0.1807921200	-0.0009999500	-0.0104896540	0.0017623194	0.7069437500
-0.1854624700	-0.0009999500	-0.0085103987	0.0017112250	0.7250085500
-0.1866830300	-0.0009999500	-0.0079804761	0.0016992695	0.7299602000
-0.1908819100	-0.0009999500	-0.0061203041	0.0016493712	0.7475749300
-0.1918838200	-0.0009999500	-0.0056660878	0.0016368480	0.7519835800
-0.1955994400	-0.0009999500	-0.0039488641	0.0015839954	0.7692529000
-0.1965485200	-0.0009999500	-0.0035003875	0.0015754881	0.7738725500
-0.1999056200	-0.0009999500	-0.0018837184	0.0015238474	0.7905131600
-0.2007029500	-0.0009999500	-0.0014914083	0.0015150088	0.7946507900
-0.2037234200	-0.0009999500	0.0000228306	0.0014590306	0.8110079800
-0.2044920000	-0.0009999500	0.0004164322	0.0014471487	0.8153639400
-0.2072533500	-0.0009999500	0.0018568500	0.0013955833	0.8313648700
-0.2079083200	-0.0009999500	0.0022055521	0.0013836004	0.8352642100
-0.2104902300	-0.0009999500	0.0036055772	0.0013370930	0.8510236700
-0.2110003400	-0.0009999500	0.0038877921	0.0013286284	0.8542867900
-0.2133954900	-0.0009999500	0.0052373935	0.0012821734	0.8697729700
-0.2137998200	-0.0009999500	0.0054697250	0.0012752330	0.8724749100
-0.2159208800	-0.0009999500	0.0067102755	0.0012223248	0.8872205000
-0.2164105500	-0.0009999500	0.0070024794	0.0012109930	0.8906666600
-0.2183167200	-0.0009999500	0.0081596505	0.0011616489	0.9042912100
-0.2187500900	-0.0009999500	0.0084278975	0.0011501631	0.9074532400
-0.2204469400	-0.0009999500	0.0094956513	0.0010989831	0.9199616900
-0.2208840800	-0.0009999500	0.0097759953	0.0010875851	0.9232369700
-0.2224383200	-0.0009999500	0.0107896450	0.0010342780	0.9348509300
-0.2228085100	-0.0009999500	0.0110356790	0.0010214195	0.9376899600
-0.2242133600	-0.0009999500	0.0119850370	0.0009630155	0.9484385300
-0.2245803300	-0.0009999500	0.0122377030	0.0009483987	0.9512357700
-0.2258905500	-0.0009999500	0.0131552930	0.0008862186	0.9611573800
-0.2262070500	-0.0009999500	0.0133810710	0.0008709871	0.9635599300
-0.2274106100	-0.0009999500	0.0142541260	0.0008009506	0.9725302500
-0.2277255200	-0.0009999500	0.0144867990	0.0007830138	0.9748278900
-0.2288460700	-0.0009999500	0.0153285480	0.0007084350	0.9827190000
-0.2291131600	-0.0009999500	0.0155328450	0.0006903052	0.9845724100
-0.2301285700	-0.0009999500	0.0163220390	0.0006103845	0.9912819300
-0.2303896200	-0.0009999500	0.0165286620	0.0005902413	0.9929308300
-0.2313229600	-0.0009999500	0.0172794680	0.0005095253	0.9984245900
-0.2315411100	-0.0009999500	0.0174581450	0.0004902608	0.9996630000
-0.2323880200	-0.0009999500	0.0181630160	0.0004057956	1.0040873000
-0.2326061900	-0.0009999500	0.0183478580	0.0003839357	1.0051186000
-0.2333983600	-0.0009999500	0.0190301260	0.0002961384	1.0083477000
-0.2335874700	-0.0009999500	0.0191959090	0.0002746465	1.0090406000
-0.2343189900	-0.0009999500	0.0198476350	0.0001843263	1.0111797000
-0.2345093900	-0.0009999500	0.0200203080	0.0001612876	1.0116149000
-0.2351958800	-0.0009999500	0.0206531340	0.0000678515	1.0125864000
-0.2353606100	-0.0009999500	0.0208076890	0.0000445938	1.0127205000
-0.2359929800	-0.0009999500	0.0214104500	-0.0000525445	1.0125794000
-0.2361569400	-0.0009999500	0.0215694680	-0.0000776285	1.0123892000
-0.2367472500	-0.0009999500	0.0221511740	-0.0001723608	1.0110763000
-0.2368872000	-0.0009999500	0.0222914890	-0.0001944245	1.0106480000
-0.2374296500	-0.0009999500	0.0228440970	-0.0002906199	1.0082811000
-0.2375697300	-0.0009999500	0.0229893400	-0.0003160522	1.0075160000
-0.2380770600	-0.0009999500	0.0235241000	-0.0004129204	1.0039172000
-0.2381974300	-0.0009999500	0.0236532630	-0.0004364436	1.0029370000
-0.2386633200	-0.0009999500	0.0241613440	-0.0005326000	0.9983711200
-0.2387833000	-0.0009999500	0.0242945610	-0.0005580724	0.9970166100
-0.2392175500	-0.0009999500	0.0247847810	-0.0006557620	0.9912565900
-0.2393203100	-0.0009999500	0.0249028730	-0.0006791053	0.9897424600
-0.2397203600	-0.0009999500	0.0253702050	-0.0007729849	0.9829987300
-0.2398236400	-0.0009999500	0.0254930160	-0.0007979683	0.9810757600
-0.2402010400	-0.0009999500	0.0259493760	-0.0008918147	0.9732012200
-0.2402915500	-0.0009999500	0.0260607970	-0.0009149171	0.9711251300
-0.2406447400	-0.0009999500	0.0265029280	-0.0010090644	0.9622075000
-0.2407370200	-0.0009999500	0.0266205430	-0.0010332347	0.9596549300
-0.2410713300	-0.0009999500	0.0270540230	-0.0011257236	0.9494308800
-0.2411512300	-0.0009999500	0.0271595100	-0.0011477333	0.9468110800
-0.2414628400	-0.0009999500	0.0275779550	-0.0012367702	0.9355853800
-0.2415437800	-0.0009999500	0.0276886370	-0.0012604459	0.9324504100
-0.2418377300	-0.0009999500	0.0280975960	-0.0013481342	0.9199795100
-0.2419080000	-0.0009999500	0.0281971860	-0.0013690057	0.9168090200
-0.2421806800	-0.0009999500	0.0285903460	-0.0014515113	0.9034696800
-0.2422512900	-0.0009999500	0.0286940900	-0.0014729868	0.8997831900
-0.2425070100	-0.0009999500	0.0290765800	-0.0015519794	0.8853312700
-0.2425680900	-0.0009999500	0.0291696970	-0.0015703257	0.8816815600
-0.2428046500	-0.0009999500	0.0295368750	-0.0016417353	0.8665366200
-0.2428658300	-0.0009999500	0.0296336900	-0.0016598907	0.8623711500
-0.2430884200	-0.0009999500	0.0299925800	-0.0017296750	0.8461381800
-0.2431417300	-0.0009999500	0.0300802140	-0.0017453067	0.8420352900
-0.2433509500	-0.0009999500	0.0304308610	-0.0018085257	0.8248664700
-0.2434056700	-0.0009999500	0.0305244210	-0.0018243440	0.8201084700
-0.2436064500	-0.0009999500	0.0308747920	-0.0018847093	0.8014596700
-0.2436552900	-0.0009999500	0.0309618470	-0.0018978337	0.7966999400
-0.2438475300	-0.0009999500	0.0313117020	-0.0019503773	0.7767747000
-0.2438980500	-0.0009999500	0.0314057020	-0.0019630620	0.7712298600
-0.2440836900	-0.0009999500	0.0317590420	-0.0020121733	0.7494788800
-0.2441288400	-0.0009999500	0.0318470300	-0.0020220863	0.7439287900
-0.2443069800	-0.0009999500	0.0322024410	-0.0020615467	0.7206304700
-0.2443536400	-0.0009999500	0.0322978650	-0.0020703357	0.7141716500
-0.2445251200	-0.0009999500	0.0326577390	-0.0021040190	0.6888249500
-0.2445666600	-0.0009999500	0.0327472760	-0.0021097950	0.6823787100
-0.2447303200	-0.0009999500	0.0331095980	-0.0021313154	0.6553261900
-0.2447730000	-0.0009999500	0.0332067940	-0.0021351863	0.6478538500
-0.2449293400	-0.0009999500	0.0335735270	-0.0021486988	0.6185922600
-0.2449670700	-0.0009999500	0.0336647260	-0.0021494537	0.6111693400
-0.2451150000	-0.0009999500	0.0340337600	-0.0021498383	0.5800526700
-0.2451534000	-0.0009999500	0.0341327190	-0.0021480592	0.5714795000
-0.2452933300	-0.0009999500	0.0345060190	-0.0021384250	0.5379032500
-0.2453269200	-0.0009999500	0.0345988120	-0.0021331391	0.5294152500
-0.2454578400	-0.0009999500	0.0349742250	-0.0021068710	0.4938923400
-0.2454916100	-0.0009999500	0.0350748490	-0.0020977285	0.4841288900
-0.2456138000	-0.0009999500	0.0354543290	-0.0020589842	0.4460052300
-0.2456429000	-0.0009999500	0.0355486120	-0.0020458329	0.4363816100
-0.2457554500	-0.0009999500	0.0359299480	-0.0019867221	0.3962837200
-0.2457841800	-0.0009999500	0.0360320990	-0.0019681677	0.3852820400
-0.2458872100	-0.0009999500	0.0364172380	-0.0018929931	0.3424849500
-0.2459114500	-0.0009999500	0.0365128630	-0.0018702422	0.3317114100
-0.2460041000	-0.0009999500	0.0368995220	-0.0017702174	0.2869384300
-0.2460274400	-0.0009999500	0.0370030220	-0.0017408009	0.2747181400
-0.2461097500	-0.0009999500	0.0373931190	-0.0016211365	0.2273303400
-0.2461287800	-0.0009999500	0.0374898990	-0.0015880421	0.2154677800
-0.2462000400	-0.0009999500	0.0378810730	-0.0014414788	0.1663405900
-0.2462175500	-0.0009999500	0.0379856940	-0.0014004116	0.1530099100
-0.2462776300	-0.0009999500	0.0383798410	-0.0012324392	0.1015426600
-0.2462910600	-0.0009999500	0.0384775290	-0.0011878020	0.0887442980
-0.2463393700	-0.0009999500	0.0388722080	-0.0009920342	0.0361621270
-0.2463506600	-0.0009999500	0.0389776570	-0.0009384915	0.0220145150
-0.2463870800	-0.0009999500	0.0393746980	-0.0007224322	-0.0321374420
-0.2463946000	-0.0009999500	0.0394729900	-0.0006676690	-0.0455292950
-0.2464189400	-0.0009999500	0.0398698750	-0.0004312678	-0.1004066800
-0.2464238000	-0.0009999500	0.0399757850	-0.0003680398	-0.1151232300
-0.2464359800	-0.0009999500	0.0403743130	-0.0001138327	-0.1715240900
-0.2464374900	-0.0009999500	0.0404728460	-0.0000497302	-0.1854505400
-0.2464375000	-0.0009999500	0.0408703870	0.0002248340	-0.2424709900
-0.2464358700	-0.0009999500	0.0409763980	0.0002983475	-0.2577654400
-0.2464235000	-0.0009999500	0.0413743820	0.0005917602	-0.3160011800
-0.2464188900	-0.0009999500	0.0414730090	0.0006643264	-0.3304076500
-0.2463944700	-0.0009999500	0.0418662580	0.0009731710	-0.3883999000
-0.2463860800	-0.0009999500	0.0419736130	0.0010542357	-0.4042505000
-0.2463501100	-0.0009999500	0.0423580180	0.0013628899	-0.4615339600
-0.2463387300	-0.0009999500	0.0424618390	0.0014356872	-0.4769679900
-0.2462940400	-0.0009999500	0.0428204760	0.0017088631	-0.5309507300
-0.2462781500	-0.0009999500	0.0429344620	0.0018004346	-0.5491069600
-0.2462188800	-0.0009999500	0.0433090180	0.0021404719	-0.6057238600
-0.2462019300	-0.0009999500	0.0434120450	0.0022365456	-0.6186953800
-0.2461826200	-0.0009999500	0.0435145830	0.0023310843	-0.6365085200
-0.2461093800	-0.0009999500	0.0438909120	0.0026835570	-0.6909649400
-0.2460857300	-0.0009999500	0.0440015310	0.0027698363	-0.7058659800
-0.2460050400	-0.0009999500	0.0443536640	0.0031119734	-0.7565132400
-0.2459806200	-0.0009999500	0.0444535320	0.0032096522	-0.7700453400
-0.2458829100	-0.0009999500	0.0448272080	0.0035633699	-0.8210464100
-0.2458542000	-0.0009999500	0.0449305180	0.0036584260	-0.8350050400
-0.2457426500	-0.0009999500	0.0453084260	0.0040098764	-0.8865432700
-0.2457132600	-0.0009999500	0.0454026090	0.0040934543	-0.8992045500
-0.2455887200	-0.0009999500	0.0457808190	0.0044397835	-0.9493092900
-0.2455540000	-0.0009999500	0.0458809810	0.0045304410	-0.9623748100
-0.2454179500	-0.0009999500	0.0462545230	0.0048749499	-1.0110327000
-0.2453828000	-0.0009999500	0.0463465860	0.0049571142	-1.0227461000
-0.2452349100	-0.0009999500	0.0467168580	0.0052881108	-1.0689099000
-0.2451940600	-0.0009999500	0.0468146990	0.0053723113	-1.0808239000
-0.2450352600	-0.0009999500	0.0471792260	0.0056882526	-1.1246208000
-0.2449945100	-0.0009999500	0.0472690050	0.0057603489	-1.1349957000
-0.2448242300	-0.0009999500	0.0476294900	0.0060463064	-1.1750239000
-0.2447774600	-0.0009999500	0.0477247280	0.0061184562	-1.1852032000
-0.2445969100	-0.0009999500	0.0480789360	0.0063871317	-1.2220488000
-0.2445508400	-0.0009999500	0.0481661780	0.0064495211	-1.2307483000
-0.2443595500	-0.0009999500	0.0485159380	0.0066972646	-1.2640098000
-0.2443072900	-0.0009999500	0.0486082990	0.0067605703	-1.2725048000
-0.2441066500	-0.0009999500	0.0489515360	0.0069972505	-1.3032845000
-0.2440557000	-0.0009999500	0.0490360070	0.0070521407	-1.3105408000
-0.2438451100	-0.0009999500	0.0493745210	0.0072657643	-1.3382472000
-0.2437878300	-0.0009999500	0.0494638380	0.0073211810	-1.3453002000
-0.2435687600	-0.0009999500	0.0497956460	0.0075220459	-1.3708493000
-0.2435133300	-0.0009999500	0.0498772520	0.0075699323	-1.3768567000
-0.2432850900	-0.0009999500	0.0502041280	0.0077475653	-1.3995237000
-0.2432232200	-0.0009999500	0.0502903390	0.0077940913	-1.4052929000
-0.2429873200	-0.0009999500	0.0506104040	0.0079594461	-1.4260314000
-0.2429278000	-0.0009999500	0.0506891010	0.0079989176	-1.4308754000
-0.2426834400	-0.0009999500	0.0510041080	0.0081407102	-1.4488633000
-0.2426173800	-0.0009999500	0.0510871630	0.0081783868	-1.4534003000
-0.2423661400	-0.0009999500	0.0513953230	0.0082987966	-1.4694431000
-0.2423028900	-0.0009999500	0.0514710690	0.0083283534	-1.4731103000
-0.2420438400	-0.0009999500	0.0517741030	0.0084313343	-1.4862831000
-0.2419739400	-0.0009999500	0.0518539730	0.0084633202	-1.4896191000
-0.2417087300	-0.0009999500	0.0521501940	0.0085704840	-1.5015885000
-0.2416421000	-0.0009999500	0.0522229820	0.0085940766	-1.5043112000
-0.2413697100	-0.0009999500	0.0525140870	0.0086648342	-1.5141778000
-0.2412963500	-0.0009999500	0.0525908020	0.0086859496	-1.5164549000
-0.2410185500	-0.0009999500	0.0528752130	0.0087428905	-1.5244465000
-0.2409488400	-0.0009999500	0.0529451110	0.0087601535	-1.5261399000
-0.2406644700	-0.0009999500	0.0532245260	0.0088019838	-1.5316216000
-0.2405879500	-0.0009999500	0.0532982050	0.0088178498	-1.5329288000
-0.2402987600	-0.0009999500	0.0535712020	0.0088499880	-1.5371635000
-0.2402261900	-0.0009999500	0.0536384100	0.0088613883	-1.5380454000
-0.2399302900	-0.0009999500	0.0539072160	0.0088814473	-1.5402110000
-0.2398505700	-0.0009999500	0.0539782870	0.0088917133	-1.5407321000
-0.2395490100	-0.0009999500	0.0542421450	0.0089108849	-1.5420264000
-0.2394729900	-0.0009999500	0.0543074680	0.0089196152	-1.5422450000
-0.2391620400	-0.0009999500	0.0545698440	0.0089384721	-1.5419505000
-0.2390779100	-0.0009999500	0.0546395890	0.0089473879	-1.5418702000
-0.2387578800	-0.0009999500	0.0549000950	0.0089729907	-1.5412451000
-0.2386768600	-0.0009999500	0.0549649220	0.0089812256	-1.5410198000
-0.2383405100	-0.0009999500	0.0552292650	0.0090030984	-1.5393595000
-0.2382485900	-0.0009999500	0.0553002730	0.0090133333	-1.5388533000
-0.2378958900	-0.0009999500	0.0555678010	0.0090275681	-1.5368448000
-0.2378053400	-0.0009999500	0.0556353370	0.0090361529	-1.5362171000
-0.2374305000	-0.0009999500	0.0559098090	0.0090494125	-1.5330924000
-0.2373278000	-0.0009999500	0.0559837110	0.0090601063	-1.5322008000
-0.2369357800	-0.0009999500	0.0562606790	0.0090748664	-1.5291129000
-0.2368358500	-0.0009999500	0.0563300590	0.0090844333	-1.5282413000
-0.2364215100	-0.0009999500	0.0566124470	0.0090885064	-1.5242244000
-0.2363085300	-0.0009999500	0.0566880780	0.0090973822	-1.5230536000
-0.2358760700	-0.0009999500	0.0569721050	0.0090900333	-1.5185187000
-0.2357661100	-0.0009999500	0.0570430380	0.0090956550	-1.5172942000
-0.2353079500	-0.0009999500	0.0573329520	0.0090821693	-1.5113839000
-0.2351824200	-0.0009999500	0.0574109290	0.0090879670	-1.5097125000
-0.2347030600	-0.0009999500	0.0577028650	0.0090664759	-1.5029491000
-0.2345808400	-0.0009999500	0.0577759370	0.0090685530	-1.5012664000
-0.2340722400	-0.0009999500	0.0580740090	0.0090681903	-1.4933590000
-0.2339336400	-0.0009999500	0.0581537040	0.0090671683	-1.4912627000
-0.2333980600	-0.0009999500	0.0584554370	0.0090387898	-1.4831116000
-0.2332610600	-0.0009999500	0.0585311730	0.0090367269	-1.4808134000
-0.2326825000	-0.0009999500	0.0588443610	0.0090062916	-1.4701362000
-0.2325237700	-0.0009999500	0.0589286090	0.0090055512	-1.4673036000
-0.2319062500	-0.0009999500	0.0592493410	0.0089931430	-1.4559927000
-0.2317481900	-0.0009999500	0.0593298380	0.0089912344	-1.4531976000
-0.2310776400	-0.0009999500	0.0596638510	0.0089805054	-1.4414428000
-0.2308943300	-0.0009999500	0.0597533170	0.0089812235	-1.4382359000
-0.2301811400	-0.0009999500	0.0600936600	0.0089638895	-1.4262407000