VARIABLES= iterations rms_res_mf1 rms_res_mf2 rms_res_mf3 rms_res_mf4 rms_res_mf5 rms_res_trb1 CL CD CDv CM
ZONE T = "USM3D-ME, Pointwise_2.0"
1  -999  -999  -999  -999  1.082841E-07  5.817916E-02  -1.318234E-02  3.573058E-01  3.573058E-01  6.111209E-05
2  -999  -999  -999  -999  8.668482E-08  1.407488E-02  6.218409E-01  6.618970E-01  3.559777E-01  -1.627230E-01
3  -999  -999  -999  -999  6.143750E-08  3.650970E-03  1.350534E+00  1.028795E+00  3.534075E-01  -3.457776E-01
4  -999  -999  -999  -999  4.343913E-08  9.599568E-04  1.795979E+00  1.259234E+00  3.484538E-01  -4.568153E-01
5  -999  -999  -999  -999  3.246261E-08  2.140789E-04  1.817548E+00  1.260826E+00  3.389660E-01  -4.630080E-01
6  -999  -999  -999  -999  2.389178E-08  5.915483E-05  1.733612E+00  1.197982E+00  3.213570E-01  -4.416900E-01
7  -999  -999  -999  -999  1.792508E-08  1.741914E-05  1.705947E+00  1.146408E+00  2.909977E-01  -4.343535E-01
8  -999  -999  -999  -999  1.408129E-08  4.866365E-06  1.684747E+00  1.062449E+00  2.448235E-01  -4.287446E-01
9  -999  -999  -999  -999  1.084587E-08  1.301106E-06  1.448190E+00  7.977766E-01  1.867958E-01  -3.575221E-01
10  -999  -999  -999  -999  8.167456E-09  3.443168E-07  1.286167E+00  5.314743E-01  1.300576E-01  -2.712104E-01
11  -999  -999  -999  -999  7.594030E-09  1.091339E-07  1.143481E+00  3.198504E-01  8.688070E-02  -1.770653E-01
12  -999  -999  -999  -999  7.603781E-09  1.087868E-07  1.140028E+00  3.188928E-01  8.672468E-02  -1.761606E-01
13  -999  -999  -999  -999  6.187911E-09  5.019488E-08  1.103583E+00  2.893896E-01  7.955355E-02  -1.597879E-01
14  -999  -999  -999  -999  6.251034E-09  4.086263E-08  9.977822E-01  2.368175E-01  6.964649E-02  -1.168083E-01
15  -999  -999  -999  -999  7.562936E-09  4.209056E-08  6.840475E-01  1.658801E-01  6.057235E-02  -2.777038E-02
16  -999  -999  -999  -999  8.443616E-09  4.704180E-08  4.243193E-01  1.150741E-01  5.410486E-02  1.972593E-02
17  -999  -999  -999  -999  5.710365E-09  3.859008E-08  3.334412E-01  9.368203E-02  5.063973E-02  3.945343E-02
18  -999  -999  -999  -999  5.555551E-09  3.950150E-08  1.597294E-01  5.776660E-02  4.636670E-02  6.589853E-02
19  -999  -999  -999  -999  5.222898E-09  4.332483E-08  1.388148E-01  3.186056E-02  4.169213E-02  5.210758E-02
20  -999  -999  -999  -999  3.720174E-09  3.828521E-08  1.373436E-01  2.599416E-02  4.059809E-02  5.003867E-02
21  -999  -999  -999  -999  3.152826E-09  3.851742E-08  1.756108E-01  1.750649E-02  3.880775E-02  3.562843E-02
22  -999  -999  -999  -999  2.266380E-09  4.098022E-08  2.775430E-01  1.256890E-02  3.617241E-02  1.211508E-02
23  -999  -999  -999  -999  1.722487E-09  4.725919E-08  3.232442E-01  1.245113E-02  3.322381E-02  4.496936E-03
24  -999  -999  -999  -999  1.210933E-09  5.245946E-08  3.225985E-01  2.461613E-02  3.073119E-02  3.313546E-03
25  -999  -999  -999  -999  1.112408E-09  4.540177E-08  3.291424E-01  2.933516E-02  2.951126E-02  2.187881E-03
26  -999  -999  -999  -999  2.204594E-09  5.001790E-08  3.179353E-01  4.087935E-02  2.775884E-02  3.291252E-03
27  -999  -999  -999  -999  4.864026E-09  5.823805E-08  3.217564E-01  5.225968E-02  2.590024E-02  1.715634E-03
28  -999  -999  -999  -999  2.924007E-09  5.596350E-08  3.223382E-01  5.351909E-02  2.550541E-02  1.771339E-03
29  -999  -999  -999  -999  2.982207E-09  6.044291E-08  3.258435E-01  5.673375E-02  2.490517E-02  7.065848E-04
30  -999  -999  -999  -999  3.616699E-09  7.136223E-08  3.249978E-01  5.356471E-02  2.414249E-02  1.196430E-03
31  -999  -999  -999  -999  3.077043E-09  8.677798E-08  3.177508E-01  5.125884E-02  2.351966E-02  2.511738E-03
32  -999  -999  -999  -999  2.899951E-09  1.007268E-07  3.146719E-01  5.031636E-02  2.319450E-02  2.943085E-03
33  -999  -999  -999  -999  2.221282E-09  1.045352E-07  3.140318E-01  4.942111E-02  2.326899E-02  2.837590E-03
34  -999  -999  -999  -999  3.040529E-09  1.195870E-07  3.091669E-01  4.807905E-02  2.305532E-02  3.422865E-03
35  -999  -999  -999  -999  3.388711E-09  1.235186E-07  3.084441E-01  4.778847E-02  2.283037E-02  3.472505E-03
36  -999  -999  -999  -999  4.196086E-09  1.442051E-07  3.064630E-01  4.707895E-02  2.215626E-02  3.596997E-03
37  -999  -999  -999  -999  4.499909E-09  1.671484E-07  3.056200E-01  4.650295E-02  2.160253E-02  3.672026E-03
38  -999  -999  -999  -999  3.535282E-09  1.687413E-07  3.052316E-01  4.613808E-02  2.121800E-02  3.521587E-03
39  -999  -999  -999  -999  3.482018E-09  1.947896E-07  3.031996E-01  4.573707E-02  2.051971E-02  3.820722E-03
40  -999  -999  -999  -999  3.462361E-09  2.230410E-07  3.028387E-01  4.502151E-02  1.984764E-02  3.889627E-03
41  -999  -999  -999  -999  2.400995E-09  2.140450E-07  3.019215E-01  4.398204E-02  1.948156E-02  3.937977E-03
42  -999  -999  -999  -999  1.839568E-09  2.240000E-07  2.995425E-01  4.302689E-02  1.883002E-02  4.203692E-03
43  -999  -999  -999  -999  1.420983E-09  2.289150E-07  2.955174E-01  4.130874E-02  1.811610E-02  4.430824E-03
44  -999  -999  -999  -999  1.495820E-09  2.251236E-07  2.919266E-01  4.099111E-02  1.746855E-02  4.496348E-03
45  -999  -999  -999  -999  1.281303E-09  1.911966E-07  2.899346E-01  4.072245E-02  1.712805E-02  4.520080E-03
46  -999  -999  -999  -999  1.588379E-09  1.895155E-07  2.854942E-01  3.891341E-02  1.643536E-02  4.670073E-03
47  -999  -999  -999  -999  1.719126E-09  1.979241E-07  2.832411E-01  3.884237E-02  1.578475E-02  4.607706E-03
48  -999  -999  -999  -999  1.192236E-09  1.779754E-07  2.808196E-01  3.884928E-02  1.550732E-02  4.742215E-03
49  -999  -999  -999  -999  1.313598E-09  1.797787E-07  2.772710E-01  3.775817E-02  1.500527E-02  4.795228E-03
50  -999  -999  -999  -999  1.523054E-09  1.918696E-07  2.735190E-01  3.894948E-02  1.446182E-02  4.842098E-03
51  -999  -999  -999  -999  1.019804E-09  1.763824E-07  2.733360E-01  3.904450E-02  1.429668E-02  4.622560E-03
52  -999  -999  -999  -999  1.120436E-09  1.785299E-07  2.706714E-01  3.763738E-02  1.394427E-02  4.817178E-03
53  -999  -999  -999  -999  1.365421E-09  1.956561E-07  2.683503E-01  3.807875E-02  1.352239E-02  4.885951E-03
54  -999  -999  -999  -999  1.514874E-09  2.181810E-07  2.670738E-01  3.784451E-02  1.326478E-02  4.920756E-03
55  -999  -999  -999  -999  1.140716E-09  2.067794E-07  2.670034E-01  3.793378E-02  1.309376E-02  4.785496E-03
56  -999  -999  -999  -999  1.119110E-09  2.236366E-07  2.647853E-01  3.705865E-02  1.274342E-02  5.007217E-03
57  -999  -999  -999  -999  1.101534E-09  2.575150E-07  2.633477E-01  3.648896E-02  1.244969E-02  5.199676E-03
58  -999  -999  -999  -999  7.482867E-10  2.321964E-07  2.621709E-01  3.636584E-02  1.235985E-02  5.253161E-03
59  -999  -999  -999  -999  6.592909E-10  2.375914E-07  2.607536E-01  3.588201E-02  1.217689E-02  5.315842E-03
60  -999  -999  -999  -999  7.496572E-10  2.710790E-07  2.587621E-01  3.572639E-02  1.194293E-02  5.366100E-03
61  -999  -999  -999  -999  5.031250E-10  2.467207E-07  2.579459E-01  3.579426E-02  1.188389E-02  5.368419E-03
62  -999  -999  -999  -999  5.102677E-10  2.442202E-07  2.570902E-01  3.532509E-02  1.176226E-02  5.352271E-03
63  -999  -999  -999  -999  6.350000E-10  2.622302E-07  2.554571E-01  3.525487E-02  1.158825E-02  5.304155E-03
64  -999  -999  -999  -999  7.484830E-10  2.881385E-07  2.537938E-01  3.546840E-02  1.142562E-02  5.363552E-03
65  -999  -999  -999  -999  5.145462E-10  2.389740E-07  2.536486E-01  3.564893E-02  1.135149E-02  5.249986E-03
66  -999  -999  -999  -999  5.660400E-10  2.303239E-07  2.513931E-01  3.467528E-02  1.117577E-02  5.420973E-03
67  -999  -999  -999  -999  6.265791E-10  2.524938E-07  2.502629E-01  3.506670E-02  1.102778E-02  5.418936E-03
68  -999  -999  -999  -999  4.483918E-10  2.095952E-07  2.506014E-01  3.527536E-02  1.098918E-02  5.207639E-03
69  -999  -999  -999  -999  4.667912E-10  1.956731E-07  2.493272E-01  3.469084E-02  1.090269E-02  5.357759E-03
70  -999  -999  -999  -999  5.368061E-10  2.128950E-07  2.483538E-01  3.470995E-02  1.079509E-02  5.379494E-03
71  -999  -999  -999  -999  3.756867E-10  1.797987E-07  2.480921E-01  3.478818E-02  1.076535E-02  5.322438E-03
72  -999  -999  -999  -999  3.577107E-10  1.665698E-07  2.478172E-01  3.451395E-02  1.070777E-02  5.292012E-03
73  -999  -999  -999  -999  3.859988E-10  1.821417E-07  2.471796E-01  3.458507E-02  1.063833E-02  5.283828E-03
74  -999  -999  -999  -999  2.466522E-10  1.548695E-07  2.468295E-01  3.449111E-02  1.061881E-02  5.344851E-03
75  -999  -999  -999  -999  2.307010E-10  1.437615E-07  2.461337E-01  3.424941E-02  1.057692E-02  5.343511E-03
76  -999  -999  -999  -999  2.920072E-10  1.551792E-07  2.454259E-01  3.425366E-02  1.052322E-02  5.313730E-03
77  -999  -999  -999  -999  1.896976E-10  1.361378E-07  2.452687E-01  3.432187E-02  1.051127E-02  5.334488E-03
78  -999  -999  -999  -999  1.889453E-10  1.282287E-07  2.449317E-01  3.420996E-02  1.048147E-02  5.307040E-03
79  -999  -999  -999  -999  2.492981E-10  1.345840E-07  2.441174E-01  3.410212E-02  1.043659E-02  5.322568E-03
80  -999  -999  -999  -999  1.589946E-10  1.206955E-07  2.440231E-01  3.416503E-02  1.042723E-02  5.291069E-03
81  -999  -999  -999  -999  1.486547E-10  1.144970E-07  2.439553E-01  3.426807E-02  1.040689E-02  5.280827E-03
82  -999  -999  -999  -999  2.109454E-10  1.160944E-07  2.430250E-01  3.391727E-02  1.037009E-02  5.314613E-03
83  -999  -999  -999  -999  2.799734E-10  1.321721E-07  2.426507E-01  3.408031E-02  1.033363E-02  5.281802E-03
84  -999  -999  -999  -999  1.864838E-10  1.083764E-07  2.426781E-01  3.415981E-02  1.031992E-02  5.237387E-03
85  -999  -999  -999  -999  1.841959E-10  1.009583E-07  2.425514E-01  3.398427E-02  1.028578E-02  5.208660E-03
86  -999  -999  -999  -999  2.152441E-10  1.145579E-07  2.419681E-01  3.400280E-02  1.024740E-02  5.225037E-03
87  -999  -999  -999  -999  1.352034E-10  9.530249E-08  2.419157E-01  3.400240E-02  1.023715E-02  5.219589E-03
88  -999  -999  -999  -999  1.282450E-10  8.782167E-08  2.415872E-01  3.390039E-02  1.021606E-02  5.235460E-03
89  -999  -999  -999  -999  1.827599E-10  9.980512E-08  2.411750E-01  3.389144E-02  1.018840E-02  5.227124E-03
90  -999  -999  -999  -999  1.345957E-10  8.659119E-08  2.411146E-01  3.387777E-02  1.018282E-02  5.229513E-03
91  -999  -999  -999  -999  1.260575E-10  8.197852E-08  2.410126E-01  3.387297E-02  1.017403E-02  5.226991E-03
92  -999  -999  -999  -999  1.551346E-10  8.912605E-08  2.407234E-01  3.382762E-02  1.015064E-02  5.219245E-03
93  -999  -999  -999  -999  1.280127E-10  8.073149E-08  2.406876E-01  3.382803E-02  1.014794E-02  5.216673E-03
94  -999  -999  -999  -999  1.052618E-10  7.550776E-08  2.405689E-01  3.386865E-02  1.013665E-02  5.214310E-03
95  -999  -999  -999  -999  1.171212E-10  7.631422E-08  2.404041E-01  3.380717E-02  1.012093E-02  5.212130E-03
96  -999  -999  -999  -999  1.402842E-10  8.741240E-08  2.401542E-01  3.377316E-02  1.010355E-02  5.212648E-03
97  -999  -999  -999  -999  9.302679E-11  7.460246E-08  2.400356E-01  3.376300E-02  1.009521E-02  5.217395E-03
98  -999  -999  -999  -999  9.630257E-11  7.244114E-08  2.398796E-01  3.373215E-02  1.007649E-02  5.198638E-03
99  -999  -999  -999  -999  1.254442E-10  8.432780E-08  2.394940E-01  3.367727E-02  1.005318E-02  5.207055E-03
100  -999  -999  -999  -999  8.004119E-11  7.193500E-08  2.394631E-01  3.370660E-02  1.004724E-02  5.195026E-03
101  -999  -999  -999  -999  7.725205E-11  6.785334E-08  2.393571E-01  3.371414E-02  1.003399E-02  5.194770E-03
102  -999  -999  -999  -999  1.113035E-10  7.510275E-08  2.389351E-01  3.359557E-02  1.001253E-02  5.204553E-03
103  -999  -999  -999  -999  7.592938E-11  6.945143E-08  2.389185E-01  3.364560E-02  1.000871E-02  5.190899E-03
104  -999  -999  -999  -999  6.979202E-11  6.442182E-08  2.388975E-01  3.367950E-02  1.000210E-02  5.182872E-03
105  -999  -999  -999  -999  8.091138E-11  6.600605E-08  2.387759E-01  3.363331E-02  9.994081E-03  5.184738E-03
106  -999  -999  -999  -999  9.482406E-11  6.609972E-08  2.385885E-01  3.361876E-02  9.977148E-03  5.178768E-03
107  -999  -999  -999  -999  1.209515E-10  7.722038E-08  2.383967E-01  3.362350E-02  9.960517E-03  5.175207E-03
108  -999  -999  -999  -999  7.873672E-11  6.290476E-08  2.383195E-01  3.360772E-02  9.953707E-03  5.169243E-03
109  -999  -999  -999  -999  7.846070E-11  5.913794E-08  2.382618E-01  3.360613E-02  9.937552E-03  5.153283E-03
110  -999  -999  -999  -999  9.452772E-11  6.891351E-08  2.379833E-01  3.357097E-02  9.919007E-03  5.165200E-03
111  -999  -999  -999  -999  5.992498E-11  5.820395E-08  2.379568E-01  3.356511E-02  9.914089E-03  5.156333E-03
112  -999  -999  -999  -999  5.483419E-11  5.439640E-08  2.378787E-01  3.355964E-02  9.904016E-03  5.159691E-03
113  -999  -999  -999  -999  7.578842E-11  5.962733E-08  2.376359E-01  3.349590E-02  9.889946E-03  5.162608E-03
114  -999  -999  -999  -999  5.212206E-11  5.278734E-08  2.376210E-01  3.351706E-02  9.886773E-03  5.157600E-03
115  -999  -999  -999  -999  4.859600E-11  5.014094E-08  2.375454E-01  3.351467E-02  9.878736E-03  5.157181E-03
116  -999  -999  -999  -999  6.383630E-11  5.243934E-08  2.373965E-01  3.348043E-02  9.868546E-03  5.157493E-03
117  -999  -999  -999  -999  4.284202E-11  4.924663E-08  2.373706E-01  3.348244E-02  9.865927E-03  5.153678E-03
118  -999  -999  -999  -999  4.089550E-11  4.937452E-08  2.373331E-01  3.349341E-02  9.861705E-03  5.151910E-03
119  -999  -999  -999  -999  5.076904E-11  4.925807E-08  2.372454E-01  3.346863E-02  9.853556E-03  5.150992E-03
120  -999  -999  -999  -999  6.230354E-11  5.354466E-08  2.371532E-01  3.346299E-02  9.846497E-03  5.150506E-03
121  -999  -999  -999  -999  4.203991E-11  4.728031E-08  2.371057E-01  3.345557E-02  9.842391E-03  5.150086E-03
122  -999  -999  -999  -999  4.444691E-11  4.626565E-08  2.370261E-01  3.345700E-02  9.833025E-03  5.143886E-03
123  -999  -999  -999  -999  6.025503E-11  5.411691E-08  2.368352E-01  3.341556E-02  9.819921E-03  5.148661E-03
124  -999  -999  -999  -999  3.763696E-11  4.698718E-08  2.368110E-01  3.342548E-02  9.816779E-03  5.142021E-03
125  -999  -999  -999  -999  3.569425E-11  4.434695E-08  2.367752E-01  3.344530E-02  9.809921E-03  5.138503E-03
126  -999  -999  -999  -999  5.066045E-11  4.804702E-08  2.365929E-01  3.338100E-02  9.798960E-03  5.144916E-03
127  -999  -999  -999  -999  3.306092E-11  4.467914E-08  2.365744E-01  3.339471E-02  9.796868E-03  5.139724E-03
128  -999  -999  -999  -999  3.112227E-11  4.303631E-08  2.365549E-01  3.341139E-02  9.793213E-03  5.136268E-03
129  -999  -999  -999  -999  3.980293E-11  4.458735E-08  2.364831E-01  3.338382E-02  9.786154E-03  5.135225E-03
130  -999  -999  -999  -999  4.841208E-11  4.700137E-08  2.364252E-01  3.338683E-02  9.781058E-03  5.134383E-03
131  -999  -999  -999  -999  3.299669E-11  4.161705E-08  2.363864E-01  3.338454E-02  9.777461E-03  5.132475E-03
132  -999  -999  -999  -999  3.683019E-11  4.085565E-08  2.363322E-01  3.338525E-02  9.769341E-03  5.127242E-03
133  -999  -999  -999  -999  4.712122E-11  4.683853E-08  2.362044E-01  3.336074E-02  9.759441E-03  5.130211E-03
134  -999  -999  -999  -999  3.075909E-11  4.180974E-08  2.361874E-01  3.336366E-02  9.756802E-03  5.126170E-03
135  -999  -999  -999  -999  2.941776E-11  3.950341E-08  2.361648E-01  3.336883E-02  9.753302E-03  5.125626E-03
136  -999  -999  -999  -999  3.990461E-11  4.335675E-08  2.360551E-01  3.333260E-02  9.744295E-03  5.127528E-03
137  -999  -999  -999  -999  3.141174E-11  3.987179E-08  2.360429E-01  3.333896E-02  9.743104E-03  5.126531E-03
138  -999  -999  -999  -999  2.733188E-11  3.794725E-08  2.360106E-01  3.334828E-02  9.739241E-03  5.125944E-03
139  -999  -999  -999  -999  3.031091E-11  3.766794E-08  2.359757E-01  3.333589E-02  9.734867E-03  5.123798E-03
140  -999  -999  -999  -999  4.063186E-11  4.375905E-08  2.359040E-01  3.333426E-02  9.728051E-03  5.123654E-03
141  -999  -999  -999  -999  2.763991E-11  3.788788E-08  2.358834E-01  3.333057E-02  9.725119E-03  5.120707E-03
142  -999  -999  -999  -999  2.791340E-11  3.732577E-08  2.358393E-01  3.332518E-02  9.718406E-03  5.118351E-03
143  -999  -999  -999  -999  3.248515E-11  4.001621E-08  2.357807E-01  3.331609E-02  9.713451E-03  5.119753E-03
144  -999  -999  -999  -999  2.196055E-11  3.516066E-08  2.357614E-01  3.330735E-02  9.711156E-03  5.118175E-03
145  -999  -999  -999  -999  2.189017E-11  3.366052E-08  2.357068E-01  3.330920E-02  9.706061E-03  5.120109E-03
146  -999  -999  -999  -999  2.944108E-11  3.761774E-08  2.356190E-01  3.328559E-02  9.698527E-03  5.120880E-03
147  -999  -999  -999  -999  1.871295E-11  3.456362E-08  2.356017E-01  3.328582E-02  9.696890E-03  5.119184E-03
148  -999  -999  -999  -999  1.789237E-11  3.282665E-08  2.355804E-01  3.329114E-02  9.694216E-03  5.118818E-03
149  -999  -999  -999  -999  2.527746E-11  3.534355E-08  2.355159E-01  3.326902E-02  9.688406E-03  5.118162E-03
150  -999  -999  -999  -999  3.016608E-11  3.717211E-08  2.354863E-01  3.327317E-02  9.685082E-03  5.117326E-03
151  -999  -999  -999  -999  2.326705E-11  2.862403E-08  2.355292E-01  3.326974E-02  9.691277E-03  5.118937E-03
152  -999  -999  -999  -999  2.363232E-11  3.048121E-08  2.354884E-01  3.327765E-02  9.687272E-03  5.116937E-03
153  -999  -999  -999  -999  3.085886E-11  3.574027E-08  2.354399E-01  3.327301E-02  9.682231E-03  5.114591E-03
154  -999  -999  -999  -999  2.059129E-11  3.168941E-08  2.354303E-01  3.328238E-02  9.680447E-03  5.113481E-03
155  -999  -999  -999  -999  2.007657E-11  3.244899E-08  2.354062E-01  3.328024E-02  9.676005E-03  5.110739E-03
156  -999  -999  -999  -999  2.273360E-11  3.196676E-08  2.353706E-01  3.327088E-02  9.673069E-03  5.112030E-03
157  -999  -999  -999  -999  1.489780E-11  2.940617E-08  2.353600E-01  3.326496E-02  9.671419E-03  5.110458E-03
158  -999  -999  -999  -999  1.521297E-11  2.890208E-08  2.353200E-01  3.325815E-02  9.667780E-03  5.112229E-03
159  -999  -999  -999  -999  2.006397E-11  3.089206E-08  2.352598E-01  3.325011E-02  9.662475E-03  5.112793E-03
160  -999  -999  -999  -999  1.267189E-11  2.867887E-08  2.352489E-01  3.324668E-02  9.661204E-03  5.112364E-03
161  -999  -999  -999  -999  1.170937E-11  2.808423E-08  2.352229E-01  3.324935E-02  9.658695E-03  5.112440E-03
162  -999  -999  -999  -999  1.522898E-11  2.814972E-08  2.351940E-01  3.323856E-02  9.655877E-03  5.111848E-03
163  -999  -999  -999  -999  2.407121E-11  3.280622E-08  2.351491E-01  3.324054E-02  9.651017E-03  5.109447E-03
164  -999  -999  -999  -999  1.727376E-11  2.937759E-08  2.351428E-01  3.324126E-02  9.649493E-03  5.107672E-03
165  -999  -999  -999  -999  1.656743E-11  2.876863E-08  2.351214E-01  3.324007E-02  9.645988E-03  5.106837E-03
166  -999  -999  -999  -999  1.948108E-11  3.000262E-08  2.350908E-01  3.323475E-02  9.642769E-03  5.106994E-03
167  -999  -999  -999  -999  1.302001E-11  2.686866E-08  2.350822E-01  3.323183E-02  9.641347E-03  5.105555E-03
168  -999  -999  -999  -999  1.281203E-11  2.562726E-08  2.350544E-01  3.323129E-02  9.638193E-03  5.106350E-03
169  -999  -999  -999  -999  1.695746E-11  2.825679E-08  2.350043E-01  3.321918E-02  9.632840E-03  5.106910E-03
170  -999  -999  -999  -999  1.059371E-11  2.642532E-08  2.349929E-01  3.321553E-02  9.631850E-03  5.107100E-03
171  -999  -999  -999  -999  9.759407E-12  2.524521E-08  2.349758E-01  3.321720E-02  9.630221E-03  5.107533E-03
172  -999  -999  -999  -999  1.325031E-11  2.777559E-08  2.349451E-01  3.320523E-02  9.626546E-03  5.106194E-03
173  -999  -999  -999  -999  1.631183E-11  2.773338E-08  2.349257E-01  3.320625E-02  9.624466E-03  5.105710E-03
174  -999  -999  -999  -999  1.138224E-11  2.506220E-08  2.349108E-01  3.320512E-02  9.622914E-03  5.105271E-03
175  -999  -999  -999  -999  1.252805E-11  2.530546E-08  2.348867E-01  3.320722E-02  9.619407E-03  5.103674E-03
176  -999  -999  -999  -999  1.540734E-11  2.654577E-08  2.348616E-01  3.320254E-02  9.616576E-03  5.103484E-03
177  -999  -999  -999  -999  1.022700E-11  2.429604E-08  2.348548E-01  3.320147E-02  9.615329E-03  5.102386E-03
178  -999  -999  -999  -999  1.026011E-11  2.343955E-08  2.348367E-01  3.320095E-02  9.613002E-03  5.102804E-03
179  -999  -999  -999  -999  1.410216E-11  2.721386E-08  2.347982E-01  3.319200E-02  9.608839E-03  5.103082E-03
180  -999  -999  -999  -999  1.608036E-11  2.801569E-08  2.347824E-01  3.319150E-02  9.606939E-03  5.102984E-03
181  -999  -999  -999  -999  1.218787E-11  2.060334E-08  2.348117E-01  3.319277E-02  9.611730E-03  5.103469E-03
182  -999  -999  -999  -999  1.221791E-11  2.084020E-08  2.347984E-01  3.319327E-02  9.610246E-03  5.103213E-03
183  -999  -999  -999  -999  7.893632E-12  2.043370E-08  2.347934E-01  3.319259E-02  9.609572E-03  5.102891E-03
184  -999  -999  -999  -999  7.257483E-12  2.037695E-08  2.347802E-01  3.319073E-02  9.608301E-03  5.103157E-03
185  -999  -999  -999  -999  9.642776E-12  2.309523E-08  2.347569E-01  3.318360E-02  9.605722E-03  5.102119E-03
186  -999  -999  -999  -999  1.206541E-11  2.329617E-08  2.347406E-01  3.318403E-02  9.604077E-03  5.101749E-03
187  -999  -999  -999  -999  8.146586E-12  2.151156E-08  2.347310E-01  3.318232E-02  9.602989E-03  5.101543E-03
188  -999  -999  -999  -999  9.007538E-12  2.120378E-08  2.347072E-01  3.318366E-02  9.600487E-03  5.101503E-03
189  -999  -999  -999  -999  1.311062E-11  2.399408E-08  2.346774E-01  3.317792E-02  9.596533E-03  5.100300E-03
190  -999  -999  -999  -999  8.409007E-12  2.243646E-08  2.346716E-01  3.317740E-02  9.595703E-03  5.099819E-03
191  -999  -999  -999  -999  7.913052E-12  2.122012E-08  2.346629E-01  3.318015E-02  9.594422E-03  5.099725E-03
192  -999  -999  -999  -999  1.027705E-11  2.370117E-08  2.346425E-01  3.317277E-02  9.591278E-03  5.098968E-03
193  -999  -999  -999  -999  1.188655E-11  2.377005E-08  2.346295E-01  3.317222E-02  9.589678E-03  5.098922E-03
194  -999  -999  -999  -999  8.222630E-12  2.132912E-08  2.346174E-01  3.316878E-02  9.588368E-03  5.099218E-03
195  -999  -999  -999  -999  8.868776E-12  2.215879E-08  2.345967E-01  3.317134E-02  9.585433E-03  5.098559E-03
196  -999  -999  -999  -999  1.028027E-11  2.232845E-08  2.345817E-01  3.316651E-02  9.583573E-03  5.098663E-03
197  -999  -999  -999  -999  6.846694E-12  2.024253E-08  2.345770E-01  3.316525E-02  9.582499E-03  5.097739E-03
198  -999  -999  -999  -999  7.040672E-12  1.945316E-08  2.345594E-01  3.316231E-02  9.580156E-03  5.098238E-03
199  -999  -999  -999  -999  1.051606E-11  2.217658E-08  2.345232E-01  3.315494E-02  9.576235E-03  5.098324E-03
200  -999  -999  -999  -999  6.639283E-12  1.998630E-08  2.345187E-01  3.315599E-02  9.575503E-03  5.097694E-03
201  -999  -999  -999  -999  6.118151E-12  1.886978E-08  2.345099E-01  3.315869E-02  9.573784E-03  5.097323E-03
202  -999  -999  -999  -999  8.508187E-12  1.982458E-08  2.344867E-01  3.314802E-02  9.571005E-03  5.097352E-03
203  -999  -999  -999  -999  1.102863E-11  2.318975E-08  2.344692E-01  3.314890E-02  9.568407E-03  5.096762E-03
204  -999  -999  -999  -999  7.592660E-12  2.018444E-08  2.344611E-01  3.314870E-02  9.567377E-03  5.096602E-03
205  -999  -999  -999  -999  7.505754E-12  2.227822E-08  2.344497E-01  3.315080E-02  9.564949E-03  5.095721E-03
206  -999  -999  -999  -999  8.189776E-12  1.997593E-08  2.344407E-01  3.314799E-02  9.563763E-03  5.095887E-03
207  -999  -999  -999  -999  5.765390E-12  1.840178E-08  2.344378E-01  3.314496E-02  9.562899E-03  5.095162E-03
208  -999  -999  -999  -999  5.803542E-12  2.044852E-08  2.344227E-01  3.314131E-02  9.561067E-03  5.095926E-03
209  -999  -999  -999  -999  6.393248E-12  1.818948E-08  2.344147E-01  3.314028E-02  9.560115E-03  5.096050E-03
210  -999  -999  -999  -999  4.502049E-12  1.716694E-08  2.344103E-01  3.313935E-02  9.559452E-03  5.095784E-03
211  -999  -999  -999  -999  4.554580E-12  1.796893E-08  2.343969E-01  3.313710E-02  9.558056E-03  5.096470E-03
212  -999  -999  -999  -999  5.315499E-12  1.704210E-08  2.343886E-01  3.313504E-02  9.557070E-03  5.096366E-03
213  -999  -999  -999  -999  3.729460E-12  1.625443E-08  2.343860E-01  3.313519E-02  9.556548E-03  5.095804E-03
214  -999  -999  -999  -999  3.777594E-12  1.578297E-08  2.343766E-01  3.313307E-02  9.555431E-03  5.096145E-03
215  -999  -999  -999  -999  5.816442E-12  1.679617E-08  2.343574E-01  3.312831E-02  9.553294E-03  5.095772E-03
216  -999  -999  -999  -999  8.356809E-12  1.913468E-08  2.343432E-01  3.312940E-02  9.551270E-03  5.095282E-03
217  -999  -999  -999  -999  5.547673E-12  1.737020E-08  2.343392E-01  3.312941E-02  9.550522E-03  5.094603E-03
218  -999  -999  -999  -999  5.518757E-12  1.657334E-08  2.343334E-01  3.313032E-02  9.549432E-03  5.094403E-03
219  -999  -999  -999  -999  7.429596E-12  1.976921E-08  2.343172E-01  3.312554E-02  9.546844E-03  5.094032E-03
220  -999  -999  -999  -999  6.345171E-12  1.737965E-08  2.343152E-01  3.312529E-02  9.546605E-03  5.094010E-03
221  -999  -999  -999  -999  4.982356E-12  1.583506E-08  2.343063E-01  3.312638E-02  9.545268E-03  5.094126E-03
222  -999  -999  -999  -999  5.818924E-12  1.682496E-08  2.342965E-01  3.312194E-02  9.542712E-03  5.092865E-03
223  -999  -999  -999  -999  3.751439E-12  1.604755E-08  2.342916E-01  3.311974E-02  9.542266E-03  5.093321E-03
224  -999  -999  -999  -999  3.500037E-12  1.512557E-08  2.342833E-01  3.311714E-02  9.541636E-03  5.094254E-03
225  -999  -999  -999  -999  4.461687E-12  1.690323E-08  2.342676E-01  3.311633E-02  9.539863E-03  5.094241E-03
226  -999  -999  -999  -999  5.395394E-12  1.625517E-08  2.342614E-01  3.311586E-02  9.538965E-03  5.093993E-03
227  -999  -999  -999  -999  3.791221E-12  1.487891E-08  2.342584E-01  3.311484E-02  9.538260E-03  5.093510E-03
228  -999  -999  -999  -999  4.150058E-12  1.555055E-08  2.342490E-01  3.311454E-02  9.536730E-03  5.093309E-03
229  -999  -999  -999  -999  5.043732E-12  1.519694E-08  2.342416E-01  3.311288E-02  9.535767E-03  5.093260E-03
230  -999  -999  -999  -999  3.524863E-12  1.410012E-08  2.342393E-01  3.311287E-02  9.535211E-03  5.092881E-03
231  -999  -999  -999  -999  3.748554E-12  1.359814E-08  2.342300E-01  3.311110E-02  9.534010E-03  5.093149E-03
232  -999  -999  -999  -999  5.401474E-12  1.515272E-08  2.342155E-01  3.310902E-02  9.531817E-03  5.092598E-03
233  -999  -999  -999  -999  3.587203E-12  1.402009E-08  2.342129E-01  3.310837E-02  9.531441E-03  5.092696E-03
234  -999  -999  -999  -999  3.274953E-12  1.387538E-08  2.342069E-01  3.310877E-02  9.530574E-03  5.092744E-03
235  -999  -999  -999  -999  3.693486E-12  1.351593E-08  2.342034E-01  3.310692E-02  9.529727E-03  5.092284E-03
236  -999  -999  -999  -999  5.509850E-12  1.605029E-08  2.341895E-01  3.310538E-02  9.527882E-03  5.092397E-03
237  -999  -999  -999  -999  3.797505E-12  1.425914E-08  2.341875E-01  3.310489E-02  9.527305E-03  5.091838E-03
238  -999  -999  -999  -999  3.750590E-12  1.546640E-08  2.341795E-01  3.310364E-02  9.525962E-03  5.092058E-03
239  -999  -999  -999  -999  4.189710E-12  1.390037E-08  2.341744E-01  3.310250E-02  9.525238E-03  5.092043E-03
240  -999  -999  -999  -999  2.986277E-12  1.289874E-08  2.341725E-01  3.310134E-02  9.524735E-03  5.091583E-03
241  -999  -999  -999  -999  3.100249E-12  1.294724E-08  2.341643E-01  3.309930E-02  9.523667E-03  5.091931E-03
242  -999  -999  -999  -999  3.601715E-12  1.296590E-08  2.341584E-01  3.309868E-02  9.522776E-03  5.091790E-03
243  -999  -999  -999  -999  2.590362E-12  1.239835E-08  2.341568E-01  3.309880E-02  9.522408E-03  5.091610E-03
244  -999  -999  -999  -999  2.572177E-12  1.200243E-08  2.341522E-01  3.309787E-02  9.521803E-03  5.091819E-03
245  -999  -999  -999  -999  3.366651E-12  1.414625E-08  2.341434E-01  3.309545E-02  9.520448E-03  5.091553E-03
246  -999  -999  -999  -999  4.031046E-12  1.342991E-08  2.341387E-01  3.309508E-02  9.519766E-03  5.091476E-03
247  -999  -999  -999  -999  2.968436E-12  1.230616E-08  2.341351E-01  3.309417E-02  9.519233E-03  5.091479E-03
248  -999  -999  -999  -999  3.257209E-12  1.348549E-08  2.341280E-01  3.309423E-02  9.518017E-03  5.091206E-03
249  -999  -999  -999  -999  3.743475E-12  1.256460E-08  2.341237E-01  3.309298E-02  9.517355E-03  5.091159E-03
250  -999  -999  -999  -999  2.690993E-12  1.162982E-08  2.341220E-01  3.309266E-02  9.516898E-03  5.090837E-03
251  -999  -999  -999  -999  2.820565E-12  1.148244E-08  2.341157E-01  3.309106E-02  9.515913E-03  5.090979E-03
252  -999  -999  -999  -999  3.480216E-12  1.209841E-08  2.341089E-01  3.309016E-02  9.514852E-03  5.090807E-03
253  -999  -999  -999  -999  2.496991E-12  1.186604E-08  2.341075E-01  3.309007E-02  9.514531E-03  5.090690E-03
254  -999  -999  -999  -999  2.453618E-12  1.106223E-08  2.341050E-01  3.308970E-02  9.514160E-03  5.090756E-03
255  -999  -999  -999  -999  3.197559E-12  1.211398E-08  2.340978E-01  3.308807E-02  9.512782E-03  5.090327E-03
256  -999  -999  -999  -999  3.815344E-12  1.271983E-08  2.340925E-01  3.308734E-02  9.511981E-03  5.090334E-03
257  -999  -999  -999  -999  2.744296E-12  9.349115E-09  2.341003E-01  3.308832E-02  9.513606E-03  5.090451E-03
258  -999  -999  -999  -999  2.879515E-12  1.020511E-08  2.340922E-01  3.308663E-02  9.512575E-03  5.090843E-03
259  -999  -999  -999  -999  4.116815E-12  1.248944E-08  2.340830E-01  3.308560E-02  9.511228E-03  5.090380E-03
260  -999  -999  -999  -999  2.778596E-12  1.109452E-08  2.340812E-01  3.308610E-02  9.510855E-03  5.090313E-03
261  -999  -999  -999  -999  2.712099E-12  1.057889E-08  2.340765E-01  3.308580E-02  9.509922E-03  5.090133E-03
262  -999  -999  -999  -999  3.406672E-12  1.150940E-08  2.340697E-01  3.308333E-02  9.508610E-03  5.089826E-03
263  -999  -999  -999  -999  2.404693E-12  1.141060E-08  2.340680E-01  3.308315E-02  9.508303E-03  5.089825E-03
264  -999  -999  -999  -999  2.340332E-12  1.030724E-08  2.340659E-01  3.308314E-02  9.507998E-03  5.089882E-03
265  -999  -999  -999  -999  2.923625E-12  1.100353E-08  2.340604E-01  3.308266E-02  9.506572E-03  5.089345E-03
266  -999  -999  -999  -999  3.485014E-12  1.231571E-08  2.340535E-01  3.308081E-02  9.505567E-03  5.089472E-03
267  -999  -999  -999  -999  2.462772E-12  8.442922E-09  2.340622E-01  3.308241E-02  9.507465E-03  5.089573E-03