TITLE     = "Surface mesh and solution"
VARIABLES = "x"
"y"
"z"
"cfx"
"Cp"
DATASETAUXDATA alpha_deg="  0.0000000E+00"
DATASETAUXDATA beta_deg="  0.0000000E+00"
DATASETAUXDATA bref="  0.7500000"
DATASETAUXDATA cref="   1.000000"
DATASETAUXDATA itranflg="           0"
DATASETAUXDATA ivisc="           2"
DATASETAUXDATA mach="  0.2000000"
DATASETAUXDATA reue_mil="   4.600000"
DATASETAUXDATA sref="  0.7500000"
DATASETAUXDATA tinf_r="   521.0000"
DATASETAUXDATA xmc="  0.0000000E+00"
DATASETAUXDATA ymc="  0.0000000E+00"
DATASETAUXDATA zmc="  0.0000000E+00"
ZONE T="Slice: Y=-0.001"
STRANDID=0, SOLUTIONTIME=0
Nodes=1609, Elements=1609, ZONETYPE=FELineSeg
DATAPACKING=POINT
DT=(DOUBLE DOUBLE DOUBLE DOUBLE DOUBLE )
-0.249049 -0.001000 0.021789 0.000486	0.577004
-0.249050 -0.001000 0.021770 0.000479	0.578298
-0.249068 -0.001000 0.021549 0.000388	0.596269
-0.249081 -0.001000 0.021350 0.000309	0.612606
-0.249082 -0.001000 0.021325 0.000299	0.614666
-0.249083 -0.001000 0.021299 0.000291	0.616732
-0.249093 -0.001000 0.021099 0.000220	0.629513
-0.249099 -0.001000 0.020940 0.000163	0.640898
-0.249101 -0.001000 0.020885 0.000145	0.645417
-0.249105 -0.001000 0.020702 0.000085	0.659152
-0.249106 -0.001000 0.020675 0.000077	0.660025
-0.249107 -0.001000 0.020526 0.000030	0.667502
-0.249107 -0.001000 0.020497 0.000021	0.669440
-0.249107 -0.001000 0.020393 -0.000013	0.676982
-0.249107 -0.001000 0.020326 -0.000035	0.683232
-0.249106 -0.001000 0.020218 -0.000065	0.689879
-0.249105 -0.001000 0.020165 -0.000079	0.694248
-0.249104 -0.001000 0.020100 -0.000097	0.700065
-0.249101 -0.001000 0.019977 -0.000130	0.708086
-0.249094 -0.001000 0.019797 -0.000176	0.721372
-0.249094 -0.001000 0.019774 -0.000181	0.722629
-0.249093 -0.001000 0.019757 -0.000185	0.723469
-0.249080 -0.001000 0.019506 -0.000243	0.737251
-0.249073 -0.001000 0.019389 -0.000266	0.742600
-0.249060 -0.001000 0.019205 -0.000309	0.752915
-0.249049 -0.001000 0.019070 -0.000339	0.766075
-0.249034 -0.001000 0.018905 -0.000372	0.776142
-0.249020 -0.001000 0.018765 -0.000402	0.782110
-0.249000 -0.001000 0.018588 -0.000446	0.791497
-0.248976 -0.001000 0.018392 -0.000462	0.800110
-0.248971 -0.001000 0.018348 -0.000465	0.802286
-0.248940 -0.001000 0.018126 -0.000500	0.815114
-0.248931 -0.001000 0.018064 -0.000513	0.819170
-0.248896 -0.001000 0.017837 -0.000547	0.832398
-0.248878 -0.001000 0.017734 -0.000549	0.836404
-0.248844 -0.001000 0.017534 -0.000563	0.845897
-0.248819 -0.001000 0.017401 -0.000586	0.853228
-0.248788 -0.001000 0.017242 -0.000614	0.861328
-0.248763 -0.001000 0.017119 -0.000616	0.866497
-0.248730 -0.001000 0.016968 -0.000622	0.874554
-0.248714 -0.001000 0.016894 -0.000639	0.878779
-0.248673 -0.001000 0.016713 -0.000661	0.886416
-0.248671 -0.001000 0.016705 -0.000660	0.886729
-0.248624 -0.001000 0.016509 -0.000644	0.894091
-0.248571 -0.001000 0.016302 -0.000639	0.901905
-0.248558 -0.001000 0.016252 -0.000638	0.903797
-0.248535 -0.001000 0.016170 -0.000640	0.906656
-0.248483 -0.001000 0.015976 -0.000648	0.913302
-0.248471 -0.001000 0.015933 -0.000644	0.914741
-0.248448 -0.001000 0.015855 -0.000648	0.917720
-0.248397 -0.001000 0.015680 -0.000641	0.923356
-0.248328 -0.001000 0.015455 -0.000628	0.931654
-0.248323 -0.001000 0.015439 -0.000628	0.932332
-0.248304 -0.001000 0.015382 -0.000628	0.933852
-0.248237 -0.001000 0.015175 -0.000623	0.939600
-0.248224 -0.001000 0.015137 -0.000621	0.940781
-0.248141 -0.001000 0.014890 -0.000610	0.947572
-0.248075 -0.001000 0.014708 -0.000578	0.952859
-0.248049 -0.001000 0.014635 -0.000567	0.955127
-0.248029 -0.001000 0.014581 -0.000563	0.956050
-0.247958 -0.001000 0.014389 -0.000559	0.959967
-0.247872 -0.001000 0.014169 -0.000522	0.964841
-0.247861 -0.001000 0.014140 -0.000519	0.965338
-0.247852 -0.001000 0.014117 -0.000517	0.965968
-0.247754 -0.001000 0.013876 -0.000499	0.972285
-0.247714 -0.001000 0.013781 -0.000490	0.973629
-0.247623 -0.001000 0.013565 -0.000453	0.976074
-0.247531 -0.001000 0.013355 -0.000424	0.979599
-0.247499 -0.001000 0.013284 -0.000417	0.980754
-0.247441 -0.001000 0.013157 -0.000404	0.982713
-0.247361 -0.001000 0.012983 -0.000385	0.985485
-0.247317 -0.001000 0.012889 -0.000368	0.986284
-0.247205 -0.001000 0.012656 -0.000311	0.987729
-0.247133 -0.001000 0.012510 -0.000280	0.989115
-0.247065 -0.001000 0.012375 -0.000251	0.990887
-0.246941 -0.001000 0.012132 -0.000219	0.992299
-0.246918 -0.001000 0.012087 -0.000215	0.992460
-0.246901 -0.001000 0.012056 -0.000211	0.992565
-0.246843 -0.001000 0.011947 -0.000192	0.993302
-0.246741 -0.001000 0.011756 -0.000162	0.994602
-0.246707 -0.001000 0.011694 -0.000152	0.994746
-0.246613 -0.001000 0.011524 -0.000125	0.995181
-0.246536 -0.001000 0.011389 -0.000108	0.996176
-0.246469 -0.001000 0.011271 -0.000085	0.996762
-0.246384 -0.001000 0.011125 -0.000063	0.996851
-0.246326 -0.001000 0.011025 -0.000045	0.996816
-0.246258 -0.001000 0.010911 -0.000014	0.996832
-0.246202 -0.001000 0.010817 0.000010	0.996808
-0.246175 -0.001000 0.010772 0.000020	0.996728
-0.246085 -0.001000 0.010624 0.000051	0.996652
-0.245999 -0.001000 0.010486 0.000083	0.996288
-0.245962 -0.001000 0.010427 0.000092	0.995993
-0.245849 -0.001000 0.010248 0.000117	0.995431
-0.245770 -0.001000 0.010126 0.000149	0.994933
-0.245690 -0.001000 0.010002 0.000177	0.994443
-0.245536 -0.001000 0.009770 0.000220	0.993664
-0.245534 -0.001000 0.009767 0.000220	0.993648
-0.245531 -0.001000 0.009762 0.000221	0.993618
-0.245372 -0.001000 0.009528 0.000286	0.992342
-0.245214 -0.001000 0.009300 0.000332	0.990391
-0.245168 -0.001000 0.009234 0.000345	0.989908
-0.244977 -0.001000 0.008965 0.000393	0.987867
-0.244951 -0.001000 0.008930 0.000401	0.987618
-0.244718 -0.001000 0.008611 0.000462	0.985438
-0.244717 -0.001000 0.008610 0.000462	0.985428
-0.244710 -0.001000 0.008601 0.000464	0.985297
-0.244481 -0.001000 0.008297 0.000517	0.981022
-0.244436 -0.001000 0.008238 0.000530	0.980281
-0.244242 -0.001000 0.007987 0.000582	0.977460
-0.244147 -0.001000 0.007866 0.000605	0.976218
-0.243988 -0.001000 0.007667 0.000636	0.973733
-0.243877 -0.001000 0.007529 0.000670	0.971801
-0.243736 -0.001000 0.007356 0.000701	0.969037
-0.243636 -0.001000 0.007235 0.000727	0.967364
-0.243494 -0.001000 0.007064 0.000751	0.965027
-0.243420 -0.001000 0.006976 0.000769	0.963780
-0.243174 -0.001000 0.006689 0.000811	0.960287
-0.243153 -0.001000 0.006663 0.000816	0.959968
-0.243127 -0.001000 0.006634 0.000826	0.959516
-0.242851 -0.001000 0.006318 0.000887	0.953609
-0.242807 -0.001000 0.006268 0.000883	0.952690
-0.242721 -0.001000 0.006173 0.000898	0.951020
-0.242530 -0.001000 0.005960 0.000947	0.946782
-0.242302 -0.001000 0.005711 0.000978	0.942796
-0.242273 -0.001000 0.005680 0.000984	0.942256
-0.242260 -0.001000 0.005666 0.000986	0.941970
-0.242006 -0.001000 0.005394 0.001017	0.936208
-0.241946 -0.001000 0.005329 0.001031	0.934901
-0.241713 -0.001000 0.005086 0.001072	0.929886
-0.241680 -0.001000 0.005052 0.001081	0.929180
-0.241665 -0.001000 0.005036 0.001084	0.928784
-0.241418 -0.001000 0.004782 0.001148	0.924080
-0.241296 -0.001000 0.004658 0.001162	0.922448
-0.241142 -0.001000 0.004503 0.001175	0.919388
-0.240962 -0.001000 0.004324 0.001210	0.916287
-0.240883 -0.001000 0.004246 0.001221	0.914487
-0.240647 -0.001000 0.004015 0.001270	0.909877
-0.240550 -0.001000 0.003921 0.001285	0.907899
-0.240351 -0.001000 0.003730 0.001280	0.902978
-0.240165 -0.001000 0.003554 0.001292	0.898956
-0.240018 -0.001000 0.003415 0.001331	0.895797
-0.239818 -0.001000 0.003229 0.001366	0.891478
-0.239710 -0.001000 0.003129 0.001376	0.889284
-0.239464 -0.001000 0.002904 0.001385	0.884740
-0.239449 -0.001000 0.002891 0.001386	0.884479
-0.239436 -0.001000 0.002879 0.001389	0.884263
-0.239222 -0.001000 0.002686 0.001438	0.880612
-0.238951 -0.001000 0.002444 0.001447	0.875315
-0.238938 -0.001000 0.002432 0.001449	0.875072
-0.238896 -0.001000 0.002395 0.001457	0.874122
-0.238642 -0.001000 0.002172 0.001518	0.868219
-0.238548 -0.001000 0.002090 0.001522	0.866252
-0.238263 -0.001000 0.001844 0.001541	0.861144
-0.238232 -0.001000 0.001818 0.001543	0.860652
-0.238131 -0.001000 0.001732 0.001544	0.858816
-0.237913 -0.001000 0.001547 0.001547	0.854924
-0.237883 -0.001000 0.001522 0.001547	0.854444
-0.237780 -0.001000 0.001435 0.001567	0.852619
-0.237583 -0.001000 0.001271 0.001595	0.848897
-0.237280 -0.001000 0.001021 0.001597	0.843518
-0.237277 -0.001000 0.001018 0.001597	0.843451
-0.237276 -0.001000 0.001018 0.001597	0.843440
-0.236964 -0.001000 0.000764 0.001626	0.838441
-0.236917 -0.001000 0.000725 0.001640	0.837635
-0.236650 -0.001000 0.000510 0.001700	0.833036
-0.236592 -0.001000 0.000464 0.001707	0.831937
-0.236348 -0.001000 0.000270 0.001709	0.826532
-0.236314 -0.001000 0.000243 0.001711	0.825905
-0.236175 -0.001000 0.000134 0.001707	0.823347
-0.236018 -0.001000 0.000011 0.001724	0.820556
-0.235915 -0.001000 -0.000069 0.001715	0.818799
-0.235706 -0.001000 -0.000231 0.001723	0.815070
-0.235386 -0.001000 -0.000476 0.001750	0.810574
-0.235382 -0.001000 -0.000479 0.001750	0.810523
-0.235376 -0.001000 -0.000484 0.001750	0.810412
-0.235020 -0.001000 -0.000754 0.001780	0.803893
-0.234941 -0.001000 -0.000813 0.001783	0.802644
-0.234694 -0.001000 -0.000998 0.001835	0.798053
-0.234392 -0.001000 -0.001221 0.001853	0.793367
-0.234378 -0.001000 -0.001232 0.001853	0.793127
-0.234336 -0.001000 -0.001262 0.001850	0.792548
-0.234060 -0.001000 -0.001464 0.001839	0.788564
-0.233916 -0.001000 -0.001568 0.001816	0.786663
-0.233714 -0.001000 -0.001714 0.001823	0.783564
-0.233348 -0.001000 -0.001975 0.001858	0.776265
-0.233346 -0.001000 -0.001977 0.001859	0.776226
-0.233342 -0.001000 -0.001980 0.001859	0.776162
-0.233004 -0.001000 -0.002219 0.001926	0.770370
-0.232762 -0.001000 -0.002388 0.001936	0.766739
-0.232650 -0.001000 -0.002466 0.001934	0.765286
-0.232580 -0.001000 -0.002514 0.001932	0.763977
-0.232273 -0.001000 -0.002726 0.001962	0.759334
-0.232223 -0.001000 -0.002761 0.001963	0.758731
-0.231887 -0.001000 -0.002990 0.001942	0.754180
-0.231841 -0.001000 -0.003020 0.001950	0.753618
-0.231772 -0.001000 -0.003067 0.001951	0.752649
-0.231445 -0.001000 -0.003287 0.001956	0.748608
-0.231284 -0.001000 -0.003395 0.001967	0.746235
-0.231059 -0.001000 -0.003545 0.001991	0.742664
-0.230886 -0.001000 -0.003659 0.002014	0.740211
-0.230607 -0.001000 -0.003842 0.002041	0.735995
-0.230495 -0.001000 -0.003916 0.002038	0.734194
-0.230157 -0.001000 -0.004135 0.002031	0.728899
-0.230084 -0.001000 -0.004182 0.002033	0.727939
-0.229743 -0.001000 -0.004401 0.002050	0.723130
-0.229684 -0.001000 -0.004439 0.002051	0.722354
-0.229650 -0.001000 -0.004461 0.002055	0.722013
-0.229319 -0.001000 -0.004671 0.002084	0.718784
-0.228988 -0.001000 -0.004879 0.002081	0.715093
-0.228919 -0.001000 -0.004922 0.002079	0.714225
-0.228729 -0.001000 -0.005041 0.002089	0.711247
-0.228462 -0.001000 -0.005207 0.002099	0.707121
-0.228429 -0.001000 -0.005227 0.002101	0.706680
-0.228198 -0.001000 -0.005369 0.002117	0.703993
-0.228001 -0.001000 -0.005491 0.002126	0.701856
-0.227936 -0.001000 -0.005530 0.002132	0.700800
-0.227597 -0.001000 -0.005737 0.002195	0.695600
-0.227447 -0.001000 -0.005827 0.002207	0.693618
-0.227211 -0.001000 -0.005969 0.002174	0.691044
-0.226890 -0.001000 -0.006162 0.002191	0.687385
-0.226863 -0.001000 -0.006178 0.002192	0.687062
-0.226847 -0.001000 -0.006187 0.002192	0.686845
-0.226489 -0.001000 -0.006400 0.002211	0.682360
-0.226231 -0.001000 -0.006551 0.002234	0.679681
-0.226161 -0.001000 -0.006593 0.002232	0.678947
-0.226102 -0.001000 -0.006627 0.002237	0.678243
-0.225835 -0.001000 -0.006783 0.002219	0.675159
-0.225536 -0.001000 -0.006956 0.002220	0.670958
-0.225475 -0.001000 -0.006992 0.002227	0.670085
-0.225219 -0.001000 -0.007139 0.002231	0.667198
-0.225107 -0.001000 -0.007204 0.002233	0.665966
-0.224732 -0.001000 -0.007418 0.002256	0.662430
-0.224692 -0.001000 -0.007440 0.002262	0.662063
-0.224339 -0.001000 -0.007640 0.002304	0.658446
-0.224151 -0.001000 -0.007745 0.002292	0.655989
-0.223940 -0.001000 -0.007864 0.002285	0.653365
-0.223604 -0.001000 -0.008051 0.002304	0.649777
-0.223534 -0.001000 -0.008090 0.002306	0.649087
-0.223449 -0.001000 -0.008137 0.002307	0.648197
-0.223081 -0.001000 -0.008339 0.002312	0.644225
-0.222812 -0.001000 -0.008487 0.002328	0.640945
-0.222619 -0.001000 -0.008592 0.002319	0.638812
-0.222237 -0.001000 -0.008799 0.002343	0.634980
-0.222208 -0.001000 -0.008815 0.002343	0.634701
-0.222200 -0.001000 -0.008819 0.002344	0.634637
-0.221717 -0.001000 -0.009078 0.002350	0.630777
-0.221662 -0.001000 -0.009108 0.002351	0.630189
-0.221496 -0.001000 -0.009196 0.002348	0.628742
-0.221231 -0.001000 -0.009337 0.002333	0.626038
-0.221096 -0.001000 -0.009408 0.002355	0.624737
-0.220849 -0.001000 -0.009538 0.002380	0.621932
-0.220530 -0.001000 -0.009705 0.002397	0.619388
-0.220434 -0.001000 -0.009756 0.002397	0.618523
-0.220271 -0.001000 -0.009840 0.002396	0.616835
-0.220000 -0.001000 -0.009981 0.002386	0.613905
-0.219903 -0.001000 -0.010031 0.002403	0.612943
-0.219509 -0.001000 -0.010234 0.002437	0.608962
-0.219276 -0.001000 -0.010353 0.002432	0.607409
-0.218999 -0.001000 -0.010495 0.002434	0.605465
-0.218746 -0.001000 -0.010623 0.002447	0.602812
-0.218476 -0.001000 -0.010760 0.002494	0.600762
-0.218271 -0.001000 -0.010863 0.002485	0.598800
-0.218023 -0.001000 -0.010987 0.002451	0.596004
-0.217814 -0.001000 -0.011091 0.002457	0.594188
-0.217515 -0.001000 -0.011240 0.002446	0.592081
-0.217389 -0.001000 -0.011302 0.002441	0.591257
-0.216987 -0.001000 -0.011500 0.002469	0.588344
-0.216919 -0.001000 -0.011534 0.002469	0.587801
-0.216875 -0.001000 -0.011555 0.002470	0.587501
-0.216284 -0.001000 -0.011844 0.002515	0.582409
-0.216189 -0.001000 -0.011891 0.002528	0.581469
-0.215745 -0.001000 -0.012106 0.002533	0.576934
-0.215262 -0.001000 -0.012338 0.002548	0.572877
-0.215254 -0.001000 -0.012341 0.002548	0.572810
-0.215248 -0.001000 -0.012344 0.002548	0.572760
-0.214626 -0.001000 -0.012640 0.002554	0.566740
-0.214559 -0.001000 -0.012672 0.002553	0.566217
-0.214350 -0.001000 -0.012770 0.002560	0.564947
-0.214016 -0.001000 -0.012927 0.002548	0.562951
-0.213789 -0.001000 -0.013034 0.002551	0.561635
-0.213455 -0.001000 -0.013189 0.002545	0.559479
-0.212891 -0.001000 -0.013451 0.002572	0.555317
-0.212869 -0.001000 -0.013461 0.002571	0.555158
-0.212842 -0.001000 -0.013473 0.002573	0.554964
-0.212299 -0.001000 -0.013723 0.002607	0.551021
-0.211904 -0.001000 -0.013903 0.002586	0.548378
-0.211849 -0.001000 -0.013928 0.002583	0.547980
-0.211549 -0.001000 -0.014063 0.002608	0.545142
-0.211408 -0.001000 -0.014127 0.002613	0.543791
-0.211371 -0.001000 -0.014144 0.002617	0.543496
-0.210923 -0.001000 -0.014345 0.002601	0.540029
-0.210406 -0.001000 -0.014575 0.002590	0.537461
-0.210386 -0.001000 -0.014584 0.002589	0.537350
-0.210340 -0.001000 -0.014605 0.002592	0.537065
-0.209732 -0.001000 -0.014874 0.002632	0.533296
-0.209602 -0.001000 -0.014931 0.002626	0.532609
-0.209034 -0.001000 -0.015180 0.002652	0.529374
-0.208830 -0.001000 -0.015270 0.002655	0.527952
-0.208382 -0.001000 -0.015464 0.002636	0.524509
-0.208038 -0.001000 -0.015612 0.002649	0.522129
-0.207713 -0.001000 -0.015752 0.002667	0.520025
-0.207258 -0.001000 -0.015947 0.002686	0.517519
-0.207065 -0.001000 -0.016029 0.002680	0.516345
-0.206532 -0.001000 -0.016255 0.002672	0.512153
-0.206390 -0.001000 -0.016314 0.002669	0.511492
-0.205832 -0.001000 -0.016548 0.002649	0.508973
-0.205549 -0.001000 -0.016667 0.002659	0.507675
-0.205104 -0.001000 -0.016852 0.002678	0.505576
-0.204649 -0.001000 -0.017040 0.002693	0.502130
-0.204497 -0.001000 -0.017103 0.002695	0.501112
-0.204358 -0.001000 -0.017161 0.002709	0.500168
-0.203932 -0.001000 -0.017335 0.002723	0.497523
-0.203443 -0.001000 -0.017534 0.002752	0.494404
-0.203350 -0.001000 -0.017572 0.002750	0.493887
-0.202768 -0.001000 -0.017807 0.002709	0.490507
-0.202574 -0.001000 -0.017885 0.002721	0.489429
-0.201891 -0.001000 -0.018159 0.002750	0.486053
-0.201842 -0.001000 -0.018178 0.002749	0.485743
-0.201245 -0.001000 -0.018415 0.002729	0.482081
-0.200973 -0.001000 -0.018523 0.002738	0.480907
-0.200615 -0.001000 -0.018664 0.002727	0.479569
-0.200410 -0.001000 -0.018744 0.002733	0.478816
-0.199878 -0.001000 -0.018953 0.002725	0.477070
-0.199318 -0.001000 -0.019170 0.002745	0.474194
-0.199102 -0.001000 -0.019254 0.002747	0.472981
-0.198741 -0.001000 -0.019393 0.002769	0.470502
-0.198335 -0.001000 -0.019549 0.002771	0.467753
-0.198028 -0.001000 -0.019666 0.002781	0.466526
-0.197483 -0.001000 -0.019874 0.002781	0.464441
-0.196978 -0.001000 -0.020065 0.002784	0.463245
-0.196748 -0.001000 -0.020151 0.002782	0.462550
-0.196489 -0.001000 -0.020248 0.002783	0.461057
-0.196033 -0.001000 -0.020419 0.002760	0.457924
-0.195298 -0.001000 -0.020692 0.002770	0.452432
-0.195283 -0.001000 -0.020698 0.002770	0.452316
-0.195275 -0.001000 -0.020700 0.002770	0.452280
-0.194492 -0.001000 -0.020989 0.002786	0.449207
-0.194194 -0.001000 -0.021098 0.002776	0.447779
-0.193501 -0.001000 -0.021350 0.002733	0.445320
-0.193047 -0.001000 -0.021515 0.002739	0.444639
-0.192495 -0.001000 -0.021713 0.002727	0.443902
-0.192136 -0.001000 -0.021843 0.002755	0.443481
-0.191536 -0.001000 -0.022058 0.002851	0.441026
-0.191398 -0.001000 -0.022108 0.002856	0.440116
-0.190751 -0.001000 -0.022337 0.002829	0.435197
-0.190594 -0.001000 -0.022393 0.002823	0.434334
-0.190092 -0.001000 -0.022569 0.002825	0.432822
-0.189765 -0.001000 -0.022684 0.002799	0.431621
-0.189126 -0.001000 -0.022908 0.002795	0.428706
-0.188807 -0.001000 -0.023019 0.002811	0.427428
-0.188076 -0.001000 -0.023271 0.002786	0.425081
-0.187940 -0.001000 -0.023318 0.002777	0.424593
-0.187901 -0.001000 -0.023332 0.002775	0.424476
-0.187559 -0.001000 -0.023448 0.002776	0.423175
-0.186935 -0.001000 -0.023662 0.002771	0.420799
-0.186814 -0.001000 -0.023703 0.002773	0.420413
-0.186035 -0.001000 -0.023968 0.002830	0.418387
-0.185971 -0.001000 -0.023990 0.002833	0.418121
-0.185370 -0.001000 -0.024192 0.002817	0.415081
-0.184902 -0.001000 -0.024349 0.002823	0.413621
-0.184507 -0.001000 -0.024480 0.002822	0.412392
-0.184162 -0.001000 -0.024595 0.002794	0.411181
-0.183476 -0.001000 -0.024822 0.002833	0.408266
-0.183387 -0.001000 -0.024852 0.002836	0.407878
-0.182648 -0.001000 -0.025095 0.002816	0.405239
-0.182135 -0.001000 -0.025262 0.002848	0.403290
-0.181755 -0.001000 -0.025386 0.002864	0.402009
-0.181159 -0.001000 -0.025579 0.002887	0.400360
-0.180939 -0.001000 -0.025650 0.002890	0.399634
-0.180157 -0.001000 -0.025901 0.002905	0.396201
-0.180142 -0.001000 -0.025906 0.002905	0.396133
-0.180134 -0.001000 -0.025909 0.002904	0.396106
-0.179409 -0.001000 -0.026140 0.002803	0.393624
-0.178733 -0.001000 -0.026354 0.002820	0.391822
-0.178530 -0.001000 -0.026418 0.002809	0.391447
-0.178372 -0.001000 -0.026468 0.002814	0.391216
-0.177628 -0.001000 -0.026702 0.002821	0.390281
-0.176933 -0.001000 -0.026919 0.002875	0.388626
-0.176741 -0.001000 -0.026979 0.002876	0.388085
-0.176489 -0.001000 -0.027057 0.002887	0.387382
-0.175947 -0.001000 -0.027225 0.002827	0.385737
-0.175402 -0.001000 -0.027393 0.002849	0.383605
-0.175182 -0.001000 -0.027461 0.002848	0.382754
-0.174377 -0.001000 -0.027708 0.002880	0.380096
-0.174326 -0.001000 -0.027724 0.002882	0.379963
-0.174104 -0.001000 -0.027791 0.002895	0.379211
-0.173494 -0.001000 -0.027977 0.002906	0.377170
-0.173419 -0.001000 -0.027999 0.002908	0.376933
-0.172585 -0.001000 -0.028251 0.002944	0.373604
-0.172526 -0.001000 -0.028268 0.002946	0.373298
-0.172211 -0.001000 -0.028363 0.002960	0.371931
-0.171672 -0.001000 -0.028524 0.002953	0.369682
-0.171434 -0.001000 -0.028594 0.002942	0.368573
-0.170752 -0.001000 -0.028795 0.002857	0.365602
-0.169832 -0.001000 -0.029065 0.002842	0.364055
-0.169659 -0.001000 -0.029115 0.002827	0.363868
-0.169563 -0.001000 -0.029143 0.002833	0.363947
-0.168374 -0.001000 -0.029490 0.002807	0.364394
-0.167946 -0.001000 -0.029614 0.002822	0.363797
-0.167110 -0.001000 -0.029856 0.002800	0.362406
-0.166564 -0.001000 -0.030012 0.002814	0.361149
-0.165663 -0.001000 -0.030270 0.002859	0.359021
-0.165424 -0.001000 -0.030338 0.002858	0.358523
-0.165289 -0.001000 -0.030377 0.002862	0.358260
-0.164296 -0.001000 -0.030658 0.002849	0.356001
-0.163824 -0.001000 -0.030791 0.002867	0.354586
-0.163189 -0.001000 -0.030969 0.002851	0.353180
-0.162528 -0.001000 -0.031153 0.002865	0.351056
-0.161993 -0.001000 -0.031302 0.002864	0.349177
-0.161239 -0.001000 -0.031510 0.002875	0.347235
-0.160829 -0.001000 -0.031623 0.002869	0.345923
-0.160102 -0.001000 -0.031822 0.002879	0.342114
-0.159825 -0.001000 -0.031897 0.002892	0.340900
-0.158793 -0.001000 -0.032176 0.002918	0.337754
-0.158667 -0.001000 -0.032210 0.002914	0.337573
-0.157719 -0.001000 -0.032464 0.002839	0.336067
-0.157118 -0.001000 -0.032624 0.002851	0.334623
-0.156557 -0.001000 -0.032773 0.002836	0.333813
-0.155852 -0.001000 -0.032959 0.002850	0.332723
-0.155522 -0.001000 -0.033046 0.002841	0.332244
-0.154792 -0.001000 -0.033238 0.002820	0.331570
-0.154407 -0.001000 -0.033339 0.002785	0.331227
-0.153173 -0.001000 -0.033660 0.002775	0.329243
-0.152953 -0.001000 -0.033717 0.002780	0.328927
-0.151736 -0.001000 -0.034031 0.002884	0.327535
-0.151603 -0.001000 -0.034065 0.002893	0.327386
-0.151594 -0.001000 -0.034067 0.002893	0.327374
-0.150280 -0.001000 -0.034403 0.002836	0.324598
-0.150245 -0.001000 -0.034412 0.002836	0.324535
-0.149792 -0.001000 -0.034527 0.002832	0.323606
-0.149039 -0.001000 -0.034717 0.002810	0.322093
-0.148878 -0.001000 -0.034758 0.002809	0.321843
-0.147811 -0.001000 -0.035026 0.002775	0.320154
-0.146934 -0.001000 -0.035244 0.002797	0.318838
-0.146524 -0.001000 -0.035346 0.002784	0.318231
-0.145904 -0.001000 -0.035499 0.002803	0.317175
-0.145157 -0.001000 -0.035684 0.002772	0.315863
-0.144842 -0.001000 -0.035760 0.002759	0.315476
-0.143795 -0.001000 -0.036016 0.002727	0.314104
-0.143248 -0.001000 -0.036149 0.002715	0.314497
-0.142506 -0.001000 -0.036329 0.002698	0.313942
-0.141973 -0.001000 -0.036459 0.002793	0.312982
-0.141208 -0.001000 -0.036643 0.002884	0.309853
-0.140938 -0.001000 -0.036708 0.002865	0.307909
-0.140613 -0.001000 -0.036786 0.002882	0.306737
-0.140149 -0.001000 -0.036896 0.002899	0.305371
-0.139836 -0.001000 -0.036970 0.002878	0.304740
-0.139444 -0.001000 -0.037063 0.002893	0.303987
-0.138880 -0.001000 -0.037196 0.002841	0.302810
-0.137930 -0.001000 -0.037419 0.002812	0.301233
-0.137905 -0.001000 -0.037425 0.002809	0.301192
-0.137874 -0.001000 -0.037432 0.002811	0.301134
-0.136814 -0.001000 -0.037679 0.002812	0.299146
-0.136151 -0.001000 -0.037833 0.002861	0.298332
-0.135402 -0.001000 -0.038006 0.002854	0.297275
-0.134351 -0.001000 -0.038247 0.002876	0.296805
-0.134141 -0.001000 -0.038295 0.002859	0.296621
-0.133641 -0.001000 -0.038409 0.002863	0.296069
-0.132733 -0.001000 -0.038616 0.002828	0.295013
-0.132606 -0.001000 -0.038644 0.002826	0.294788
-0.131318 -0.001000 -0.038935 0.002873	0.292349
-0.131217 -0.001000 -0.038957 0.002875	0.292206
-0.129935 -0.001000 -0.039244 0.002824	0.290404
-0.129280 -0.001000 -0.039389 0.002830	0.289514
-0.128274 -0.001000 -0.039611 0.002794	0.287905
-0.127228 -0.001000 -0.039841 0.002816	0.286149
-0.126809 -0.001000 -0.039932 0.002801	0.285521
-0.125758 -0.001000 -0.040161 0.002740	0.284436
-0.124207 -0.001000 -0.040495 0.002743	0.284334
-0.124041 -0.001000 -0.040531 0.002732	0.284326
-0.123877 -0.001000 -0.040566 0.002723	0.284432
-0.122656 -0.001000 -0.040827 0.002651	0.283823
-0.121980 -0.001000 -0.040972 0.002837	0.282163
-0.121587 -0.001000 -0.041055 0.002841	0.280996
-0.120901 -0.001000 -0.041200 0.002753	0.278348
-0.120421 -0.001000 -0.041300 0.002749	0.277174
-0.119377 -0.001000 -0.041519 0.002664	0.275672
-0.118309 -0.001000 -0.041741 0.002775	0.273933
-0.118043 -0.001000 -0.041796 0.002795	0.273601
-0.116894 -0.001000 -0.042033 0.002778	0.272491
-0.116330 -0.001000 -0.042149 0.002776	0.271524
-0.115578 -0.001000 -0.042302 0.002754	0.270979
-0.114857 -0.001000 -0.042449 0.002733	0.270651
-0.114266 -0.001000 -0.042569 0.002741	0.270169
-0.113100 -0.001000 -0.042804 0.002786	0.268777
-0.112510 -0.001000 -0.042923 0.002771	0.268028
-0.111015 -0.001000 -0.043221 0.002784	0.266341
-0.110815 -0.001000 -0.043261 0.002778	0.266062
-0.110455 -0.001000 -0.043332 0.002787	0.265747
-0.109402 -0.001000 -0.043540 0.002741	0.264628
-0.108603 -0.001000 -0.043697 0.002755	0.263837
-0.107839 -0.001000 -0.043847 0.002730	0.263144
-0.106702 -0.001000 -0.044067 0.002754	0.261835
-0.106162 -0.001000 -0.044172 0.002725	0.261223
-0.105446 -0.001000 -0.044309 0.002704	0.260363
-0.104647 -0.001000 -0.044463 0.002640	0.259426
-0.104412 -0.001000 -0.044508 0.002643	0.259112
-0.102964 -0.001000 -0.044783 0.002704	0.256620
-0.102499 -0.001000 -0.044871 0.002721	0.256187
-0.101219 -0.001000 -0.045112 0.002668	0.255397
-0.100132 -0.001000 -0.045315 0.002690	0.254870
-0.099040 -0.001000 -0.045518 0.002670	0.254331
-0.097953 -0.001000 -0.045718 0.002643	0.253117
-0.096633 -0.001000 -0.045960 0.002674	0.251753
-0.095594 -0.001000 -0.046149 0.002685	0.251023
-0.094359 -0.001000 -0.046373 0.002684	0.250158
-0.093270 -0.001000 -0.046569 0.002665	0.249666
-0.091532 -0.001000 -0.046879 0.002639	0.248846
-0.091095 -0.001000 -0.046957 0.002611	0.248534
-0.090706 -0.001000 -0.047026 0.002636	0.248188
-0.088730 -0.001000 -0.047374 0.002583	0.245528
-0.088072 -0.001000 -0.047489 0.002561	0.244595
-0.086353 -0.001000 -0.047788 0.002701	0.243504
-0.086044 -0.001000 -0.047842 0.002703	0.243289
-0.085625 -0.001000 -0.047914 0.002686	0.242989
-0.084358 -0.001000 -0.048132 0.002589	0.241902
-0.082834 -0.001000 -0.048391 0.002664	0.239775
-0.082753 -0.001000 -0.048405 0.002664	0.239668
-0.081084 -0.001000 -0.048687 0.002697	0.238096
-0.080513 -0.001000 -0.048782 0.002705	0.237518
-0.079095 -0.001000 -0.049019 0.002665	0.236318
-0.077458 -0.001000 -0.049289 0.002611	0.235242
-0.076760 -0.001000 -0.049404 0.002571	0.234676
-0.076335 -0.001000 -0.049473 0.002567	0.234130
-0.074071 -0.001000 -0.049841 0.002604	0.231583
-0.073731 -0.001000 -0.049896 0.002605	0.231306
-0.073197 -0.001000 -0.049981 0.002598	0.231207
-0.071353 -0.001000 -0.050275 0.002515	0.230275
-0.069465 -0.001000 -0.050574 0.002528	0.229041
-0.069372 -0.001000 -0.050589 0.002526	0.228999
-0.069213 -0.001000 -0.050614 0.002529	0.228858
-0.067387 -0.001000 -0.050899 0.002523	0.227337
-0.067152 -0.001000 -0.050935 0.002522	0.227191
-0.065107 -0.001000 -0.051251 0.002580	0.226558
-0.064700 -0.001000 -0.051313 0.002586	0.226317
-0.062566 -0.001000 -0.051639 0.002559	0.225570
-0.062131 -0.001000 -0.051705 0.002550	0.225446
-0.059651 -0.001000 -0.052079 0.002592	0.224078
-0.059576 -0.001000 -0.052090 0.002591	0.224048
-0.059372 -0.001000 -0.052120 0.002596	0.223970
-0.057118 -0.001000 -0.052456 0.002524	0.222817
-0.055564 -0.001000 -0.052684 0.002544	0.221853
-0.054684 -0.001000 -0.052813 0.002514	0.221290
-0.053923 -0.001000 -0.052924 0.002535	0.220776
-0.052213 -0.001000 -0.053172 0.002557	0.219711
-0.050961 -0.001000 -0.053352 0.002550	0.219241
-0.049759 -0.001000 -0.053523 0.002512	0.218825
-0.048354 -0.001000 -0.053723 0.002484	0.218356
-0.046822 -0.001000 -0.053938 0.002482	0.217519
-0.045612 -0.001000 -0.054107 0.002455	0.216711
-0.043450 -0.001000 -0.054406 0.002580	0.215257
-0.043167 -0.001000 -0.054446 0.002585	0.215066
-0.042915 -0.001000 -0.054480 0.002583	0.214847
-0.040873 -0.001000 -0.054759 0.002484	0.213008
-0.040307 -0.001000 -0.054836 0.002526	0.212314
-0.038624 -0.001000 -0.055062 0.002516	0.211338
-0.037796 -0.001000 -0.055173 0.002484	0.210748
-0.034935 -0.001000 -0.055551 0.002347	0.209793
-0.034552 -0.001000 -0.055601 0.002348	0.209656
-0.034169 -0.001000 -0.055651 0.002383	0.209687
-0.032357 -0.001000 -0.055888 0.002475	0.209517
-0.030964 -0.001000 -0.056068 0.002502	0.208538
-0.030301 -0.001000 -0.056153 0.002482	0.207780
-0.029247 -0.001000 -0.056287 0.002474	0.207218
-0.027734 -0.001000 -0.056480 0.002405	0.206108
-0.025185 -0.001000 -0.056800 0.002513	0.205045
-0.024784 -0.001000 -0.056850 0.002516	0.204852
-0.024606 -0.001000 -0.056872 0.002522	0.204810
-0.021511 -0.001000 -0.057255 0.002420	0.203690
-0.020932 -0.001000 -0.057327 0.002401	0.203452
-0.020345 -0.001000 -0.057398 0.002408	0.203283
-0.017701 -0.001000 -0.057719 0.002436	0.202707
-0.016782 -0.001000 -0.057830 0.002439	0.202486
-0.014202 -0.001000 -0.058137 0.002399	0.201723
-0.013436 -0.001000 -0.058228 0.002388	0.201407
-0.011256 -0.001000 -0.058483 0.002396	0.200270
-0.010323 -0.001000 -0.058592 0.002373	0.199831
-0.009759 -0.001000 -0.058658 0.002398	0.199569
-0.007371 -0.001000 -0.058933 0.002372	0.198749
-0.005411 -0.001000 -0.059156 0.002371	0.197769
-0.004348 -0.001000 -0.059276 0.002382	0.197299
-0.001657 -0.001000 -0.059576 0.002401	0.196848
-0.000828 -0.001000 -0.059669 0.002387	0.196660
-0.000355 -0.001000 -0.059721 0.002387	0.196536
0.002467 -0.001000 -0.060030 0.002402	0.195617
0.005377 -0.001000 -0.060343 0.002367	0.194709
0.005570 -0.001000 -0.060364 0.002358	0.194635
0.006188 -0.001000 -0.060429 0.002366	0.194272
0.009041 -0.001000 -0.060730 0.002330	0.192481
0.009393 -0.001000 -0.060767 0.002319	0.192462
0.012996 -0.001000 -0.061139 0.002310	0.191995
0.013204 -0.001000 -0.061161 0.002308	0.192008
0.013556 -0.001000 -0.061197 0.002324	0.191924
0.015997 -0.001000 -0.061446 0.002282	0.191214
0.018235 -0.001000 -0.061670 0.002275	0.190394
0.018980 -0.001000 -0.061744 0.002243	0.189844
0.019498 -0.001000 -0.061796 0.002233	0.189727
0.022465 -0.001000 -0.062088 0.002215	0.189076
0.023743 -0.001000 -0.062212 0.002273	0.188766
0.025782 -0.001000 -0.062409 0.002335	0.188495
0.027003 -0.001000 -0.062527 0.002324	0.188327
0.028432 -0.001000 -0.062662 0.002351	0.188181
0.030245 -0.001000 -0.062834 0.002289	0.187552
0.032911 -0.001000 -0.063083 0.002238	0.186824
0.033785 -0.001000 -0.063164 0.002242	0.186575
0.036968 -0.001000 -0.063457 0.002209	0.185451
0.038444 -0.001000 -0.063590 0.002193	0.185078
0.041591 -0.001000 -0.063873 0.002194	0.184605
0.042612 -0.001000 -0.063963 0.002180	0.184478
0.045882 -0.001000 -0.064250 0.002227	0.183812
0.047513 -0.001000 -0.064391 0.002263	0.183533
0.049947 -0.001000 -0.064600 0.002242	0.182939