TITLE     = "Surface mesh and solution"
VARIABLES = "x"
"y"
"z"
"cf_x"
"Cp"
DATASETAUXDATA alpha_deg="  0.0000000E+00"
DATASETAUXDATA beta_deg="  0.0000000E+00"
DATASETAUXDATA bref="  0.7500000"
DATASETAUXDATA cref="   1.000000"
DATASETAUXDATA itranflg="           0"
DATASETAUXDATA ivisc="           2"
DATASETAUXDATA mach="  0.2000000"
DATASETAUXDATA reue_mil="   4.600000"
DATASETAUXDATA sref="  0.7500000"
DATASETAUXDATA tinf_r="   521.0000"
DATASETAUXDATA xmc="  0.0000000E+00"
DATASETAUXDATA ymc="  0.0000000E+00"
DATASETAUXDATA zmc="  0.0000000E+00"
ZONE T="USM3D-ME, MITAdapted_X0640k, Slice: Y=-0.001"
 STRANDID=0, SOLUTIONTIME=0
 Nodes=967, Elements=943, ZONETYPE=FELineSeg
 DATAPACKING=POINT
 DT=(DOUBLE DOUBLE DOUBLE DOUBLE DOUBLE )
 -2.466344723E-01 -1.000000000E-03 1.156825297E-02 -8.799048706E-05 9.818656192E-01
 -2.465991000E-01 -1.000000000E-03 1.149930369E-02 -8.229679184E-05 9.824766736E-01
 -2.472200676E-01 -1.000000000E-03 1.268848207E-02 -1.933032491E-04 9.736319901E-01
 -2.458951225E-01 -1.000000000E-03 1.033162647E-02 3.555789644E-05 9.821072690E-01
 -2.407637552E-01 -1.000000000E-03 4.129270215E-03 7.730455459E-04 9.051846061E-01
 -2.457499497E-01 -1.000000000E-03 1.009551631E-02 7.071321515E-05 9.817488532E-01
 -2.435412294E-01 -1.000000000E-03 7.122067493E-03 3.298881948E-04 9.559223032E-01
 -2.449545933E-01 -1.000000000E-03 8.979038421E-03 2.075534714E-04 9.752004115E-01
 -2.428256314E-01 -1.000000000E-03 6.341382572E-03 4.472753414E-04 9.425772135E-01
 -2.413970868E-01 -1.000000000E-03 4.780050355E-03 7.101630887E-04 9.169095645E-01
 4.157326405E-01 -1.000000000E-03 3.599644007E-03 9.582457310E-04 1.635584567E-01
 4.745382172E-01 -1.000000000E-03 -7.410228811E-03 8.947753560E-04 2.077689378E-01
 4.843950341E-01 -1.000000000E-03 -9.303526158E-03 8.421087625E-04 2.147918788E-01
 4.613652336E-01 -1.000000000E-03 -4.894714833E-03 9.728736962E-04 1.978353545E-01
 4.557923854E-01 -1.000000000E-03 -3.842840518E-03 9.970344437E-04 1.932703969E-01
 5.098094538E-01 -1.000000000E-03 -1.425735429E-02 7.591712544E-04 2.332165353E-01
 1.954453108E-01 -1.000000000E-03 3.930545393E-02 1.923933613E-03 -1.634384206E-02
 1.908490827E-01 -1.000000000E-03 3.994122010E-02 1.933598944E-03 -2.032645842E-02
 2.012434971E-01 -1.000000000E-03 3.850907056E-02 1.888389892E-03 -1.115871435E-02
 2.072386520E-01 -1.000000000E-03 3.767166085E-02 1.751687300E-03 -5.557545084E-03
 1.420118893E-01 -1.000000000E-03 4.624330770E-02 2.146665332E-03 -6.282310736E-02
 5.481897758E-01 -1.000000000E-03 -2.192255618E-02 5.814297922E-04 2.593148569E-01
 5.460644679E-01 -1.000000000E-03 -2.149138347E-02 6.070509594E-04 2.577332415E-01
 5.536184118E-01 -1.000000000E-03 -2.303031957E-02 5.889813967E-04 2.632064260E-01
 5.642547536E-01 -1.000000000E-03 -2.519607981E-02 5.614863203E-04 2.714754744E-01
 6.210212770E-01 -1.000000000E-03 -3.707394913E-02 4.146617476E-04 3.154370083E-01
 6.187520162E-01 -1.000000000E-03 -3.659177683E-02 4.225859858E-04 3.133991729E-01
 6.222277001E-01 -1.000000000E-03 -3.733258661E-02 4.066522686E-04 3.163101381E-01
 6.002817184E-01 -1.000000000E-03 -3.267960342E-02 4.788098041E-04 2.969718140E-01
 6.061326759E-01 -1.000000000E-03 -3.391025645E-02 4.337775274E-04 3.021958553E-01
 3.724664744E-01 -1.000000000E-03 1.134680271E-02 1.088056235E-03 1.312777089E-01
 3.773578687E-01 -1.000000000E-03 1.048593419E-02 1.003369877E-03 1.337532801E-01
 3.851640186E-01 -1.000000000E-03 9.100800438E-03 1.071134137E-03 1.405702717E-01
 3.583828873E-01 -1.000000000E-03 1.379937319E-02 9.724676330E-04 1.205786429E-01
 3.630873208E-01 -1.000000000E-03 1.298338423E-02 9.463724483E-04 1.244394442E-01
 3.511669055E-01 -1.000000000E-03 1.504429860E-02 1.100194699E-03 1.148051483E-01
 5.139988650E-01 -1.000000000E-03 -1.508715636E-02 7.514622484E-04 2.359506415E-01
 5.105622106E-01 -1.000000000E-03 -1.440483627E-02 7.535029302E-04 2.338050525E-01
 5.304892149E-01 -1.000000000E-03 -1.835967211E-02 7.449676039E-04 2.463146850E-01
 5.329556723E-01 -1.000000000E-03 -1.885427394E-02 7.262232958E-04 2.482010232E-01
 1.337035834E-01 -1.000000000E-03 4.724137108E-02 2.346995976E-03 -7.192134228E-02
 1.267020213E-01 -1.000000000E-03 4.806283811E-02 2.736795173E-03 -7.762067088E-02
 1.319948314E-01 -1.000000000E-03 4.744130223E-02 2.452927153E-03 -7.308986622E-02
 2.187784026E-01 -1.000000000E-03 3.603113874E-02 1.728577238E-03 4.813026333E-03
 2.116098525E-01 -1.000000000E-03 3.705162372E-02 1.746465680E-03 -1.615567743E-03
 1.846207669E-01 -1.000000000E-03 4.077903808E-02 2.013587604E-03 -2.565873573E-02
 4.259648759E-01 -1.000000000E-03 1.723618171E-03 9.665657633E-04 1.718108847E-01
 4.375468981E-01 -1.000000000E-03 -4.245219811E-04 1.039283436E-03 1.803809951E-01
 4.205828525E-01 -1.000000000E-03 2.709822400E-03 9.799865649E-04 1.675639367E-01
 4.409782780E-01 -1.000000000E-03 -1.059548582E-03 1.024532180E-03 1.827664303E-01
 4.465442838E-01 -1.000000000E-03 -2.101057408E-03 1.008474498E-03 1.864580131E-01
 5.705928254E-01 -1.000000000E-03 -2.649804685E-02 5.269931347E-04 2.756830353E-01
 6.387021799E-01 -1.000000000E-03 -4.087671276E-02 3.479673843E-04 3.296977581E-01
 6.346095344E-01 -1.000000000E-03 -3.999305707E-02 3.648770196E-04 3.261776900E-01
 7.014062742E-01 -1.000000000E-03 -5.478068104E-02 3.733016367E-05 3.864426694E-01
 6.888167264E-01 -1.000000000E-03 -5.193475904E-02 1.227945281E-04 3.738761941E-01
 6.832059713E-01 -1.000000000E-03 -5.067779841E-02 1.562216254E-04 3.676642706E-01
 6.706550476E-01 -1.000000000E-03 -4.787984799E-02 2.071226295E-04 3.571185832E-01
 6.773446311E-01 -1.000000000E-03 -4.936591096E-02 1.775138569E-04 3.622451065E-01
 2.784446177E-01 -1.000000000E-03 2.703273925E-02 1.470102954E-03 5.572099892E-02
 2.660838106E-01 -1.000000000E-03 2.896167857E-02 1.484811933E-03 4.500338052E-02
 2.685586796E-01 -1.000000000E-03 2.857989087E-02 1.502216789E-03 4.721427998E-02
 2.713950928E-01 -1.000000000E-03 2.813658694E-02 1.497041769E-03 4.967375660E-02
 3.132219084E-01 -1.000000000E-03 2.142332101E-02 1.291998795E-03 8.426812098E-02
 3.038018068E-01 -1.000000000E-03 2.296851773E-02 1.339652028E-03 7.660569492E-02
 3.064144545E-01 -1.000000000E-03 2.254454888E-02 1.331740620E-03 7.908193919E-02
 3.206600075E-01 -1.000000000E-03 2.019820663E-02 1.231658578E-03 9.015155356E-02
 3.228318678E-01 -1.000000000E-03 1.983495037E-02 1.241953279E-03 9.170934840E-02
 3.383746851E-01 -1.000000000E-03 1.722624196E-02 1.160768062E-03 1.039161672E-01
 3.411264368E-01 -1.000000000E-03 1.675744362E-02 1.140839213E-03 1.061808721E-01
 9.018951333E-02 -1.000000000E-03 5.206699567E-02 2.652160659E-03 -1.112695135E-01
 9.831861067E-02 -1.000000000E-03 5.121791326E-02 2.969082227E-03 -1.052299344E-01
 9.296860392E-02 -1.000000000E-03 5.178087608E-02 2.619146842E-03 -1.089355437E-01
 8.183497531E-02 -1.000000000E-03 5.291167278E-02 2.821179246E-03 -1.206846866E-01
 8.082084919E-02 -1.000000000E-03 5.301204772E-02 2.828899200E-03 -1.214821346E-01
 8.128885478E-02 -1.000000000E-03 5.296641830E-02 2.834292646E-03 -1.212138465E-01
 2.601316160E-01 -1.000000000E-03 2.988153392E-02 1.528963730E-03 4.029994119E-02
 2.548491858E-01 -1.000000000E-03 3.068832670E-02 1.443638240E-03 3.528320103E-02
 5.904516677E-01 -1.000000000E-03 -3.061579555E-02 4.881905222E-04 2.896994895E-01
 5.837709282E-01 -1.000000000E-03 -2.922607604E-02 4.810921503E-04 2.853109001E-01
 6.518098558E-01 -1.000000000E-03 -4.372981477E-02 3.081632191E-04 3.415500320E-01
 6.546692481E-01 -1.000000000E-03 -4.435472980E-02 2.952478727E-04 3.440689417E-01
 1.772640972E-01 -1.000000000E-03 4.176550943E-02 2.090958749E-03 -3.237466499E-02
 1.740386513E-01 -1.000000000E-03 4.218968928E-02 2.102642068E-03 -3.515972725E-02
 7.014100219E-01 -1.000000000E-03 -5.478152894E-02 3.730222609E-05 3.864464942E-01
 6.639432430E-01 -1.000000000E-03 -4.639383100E-02 2.408043095E-04 3.513365808E-01
 7.226361129E-01 -1.000000000E-03 -5.964518258E-02 -2.634106997E-05 4.074987777E-01
 7.293329266E-01 -1.000000000E-03 -6.119723298E-02 -3.407556360E-05 4.139181597E-01
 7.299763966E-01 -1.000000000E-03 -6.134706349E-02 -3.050092868E-05 4.144789499E-01
 7.096184389E-01 -1.000000000E-03 -5.665251156E-02 5.081018171E-05 3.940532537E-01
 7.106363719E-01 -1.000000000E-03 -5.688584846E-02 4.778983178E-05 3.949936035E-01
 7.157874865E-01 -1.000000000E-03 -5.806695530E-02 -1.381208185E-05 4.001978700E-01
 7.189227418E-01 -1.000000000E-03 -5.878859808E-02 -2.245672243E-05 4.033495651E-01
 1.191910562E-01 -1.000000000E-03 4.892624733E-02 2.723263893E-03 -8.432504185E-02
 1.186414354E-01 -1.000000000E-03 4.899004682E-02 2.721189663E-03 -8.468128175E-02
 1.178110777E-01 -1.000000000E-03 4.908364753E-02 2.723067863E-03 -8.535062404E-02
 1.093757445E-01 -1.000000000E-03 5.002450546E-02 2.633444913E-03 -9.416159697E-02
 1.014876197E-01 -1.000000000E-03 5.088126085E-02 2.979471213E-03 -1.030401708E-01
 7.142155214E-02 -1.000000000E-03 5.392318147E-02 2.709994882E-03 -1.284181555E-01
 7.014255560E-01 -1.000000000E-03 -5.478507007E-02 3.733745489E-05 3.864607255E-01
 3.885582624E-01 -1.000000000E-03 8.500671226E-03 1.028594447E-03 1.431096225E-01
 1.361125420E-01 -1.000000000E-03 4.695304800E-02 2.294479785E-03 -6.913714276E-02
 1.452959218E-01 -1.000000000E-03 4.584113798E-02 2.182304500E-03 -5.909529082E-02
 2.977435323E-01 -1.000000000E-03 2.395260165E-02 1.382890261E-03 7.109011063E-02
 1.487266128E-01 -1.000000000E-03 4.542085123E-02 2.181371981E-03 -5.584576907E-02
 4.076905906E-01 -1.000000000E-03 5.061471230E-03 1.033883414E-03 1.575390781E-01
 2.441202102E-01 -1.000000000E-03 3.231056876E-02 1.651447586E-03 2.593291403E-02
 2.308918345E-01 -1.000000000E-03 3.426947700E-02 1.637134537E-03 1.589923711E-02
 2.332120386E-01 -1.000000000E-03 3.393163907E-02 1.658701703E-03 1.792370703E-02
 2.360160439E-01 -1.000000000E-03 3.351436588E-02 1.624162928E-03 2.019421616E-02
 4.022297730E-01 -1.000000000E-03 6.049052048E-03 1.054208990E-03 1.535476281E-01
 3.909514501E-01 -1.000000000E-03 8.074814279E-03 1.039620035E-03 1.451543800E-01
 2.495867238E-01 -1.000000000E-03 3.148759888E-02 1.484734245E-03 3.064601072E-02
 4.044115137E-01 -1.000000000E-03 5.656742750E-03 1.049981695E-03 1.549224145E-01
 2.867473928E-01 -1.000000000E-03 2.571324097E-02 1.566734431E-03 6.235794949E-02
 2.902762580E-01 -1.000000000E-03 2.515362170E-02 1.551841413E-03 6.498852244E-02
 2.931629229E-01 -1.000000000E-03 2.469038243E-02 1.489601000E-03 6.734678120E-02
 7.301830691E-01 -1.000000000E-03 -6.139506763E-02 -2.918371168E-05 4.147007257E-01
 7.357248431E-01 -1.000000000E-03 -6.269156693E-02 9.334102481E-06 4.202778133E-01
 7.374312629E-01 -1.000000000E-03 -6.308921293E-02 3.511080657E-05 4.219886348E-01
 1.000102162E-01 -1.000000000E-03 5.104038171E-02 3.019951112E-03 -1.039716748E-01
 1.610434823E-01 -1.000000000E-03 4.387373766E-02 1.952925753E-03 -4.649949862E-02
 1.576472648E-01 -1.000000000E-03 4.430085282E-02 2.004519615E-03 -4.909050795E-02
 1.602708385E-01 -1.000000000E-03 4.397217011E-02 1.921369228E-03 -4.708193782E-02
 -2.407637552E-01 -1.000000000E-03 4.129270215E-03 7.730455459E-04 9.051846061E-01
 -2.392075361E-01 -1.000000000E-03 2.690643305E-03 1.031517286E-03 8.754563579E-01
 -2.428256314E-01 -1.000000000E-03 6.341382572E-03 4.472753414E-04 9.425772135E-01
 -2.384944925E-01 -1.000000000E-03 2.044342802E-03 1.135987291E-03 8.615567129E-01
 -2.367310300E-01 -1.000000000E-03 5.861474558E-04 1.488139143E-03 8.308644688E-01
 -2.433751476E-01 -1.000000000E-03 6.929514737E-03 3.593639663E-04 9.527464573E-01
 -2.435412294E-01 -1.000000000E-03 7.122067493E-03 3.298881948E-04 9.559223032E-01
 -1.400201831E-01 -1.000000000E-03 6.012308133E-02 5.549722362E-03 -3.401109523E-01
 -1.381198061E-01 -1.000000000E-03 6.025566621E-02 5.367559499E-03 -3.381604666E-01
 -1.393200218E-01 -1.000000000E-03 6.017575744E-02 5.401075806E-03 -3.385633718E-01
 -1.396199883E-01 -1.000000000E-03 6.015371087E-02 5.454789294E-03 -3.389279023E-01
 -1.444348398E-01 -1.000000000E-03 5.979502923E-02 5.614330639E-03 -3.450280425E-01
 -1.462849465E-01 -1.000000000E-03 5.964062355E-02 5.859309036E-03 -3.466164209E-01
 -2.639764026E-02 -1.000000000E-03 6.084228860E-02 3.859148242E-03 -2.221862646E-01
 -2.503344530E-02 -1.000000000E-03 6.078609014E-02 3.887011928E-03 -2.222100728E-01
 -2.350126679E-02 -1.000000000E-03 6.071714468E-02 3.869931262E-03 -2.204291563E-01
 -3.051629618E-02 -1.000000000E-03 6.101478189E-02 3.754373591E-03 -2.226865647E-01
 -3.396829925E-02 -1.000000000E-03 6.114669548E-02 3.732075994E-03 -2.277142068E-01
 -1.293501662E-01 -1.000000000E-03 6.080138331E-02 5.566429174E-03 -3.325027414E-01
 -1.343472344E-01 -1.000000000E-03 6.050621915E-02 4.891200895E-03 -3.350335197E-01
 -1.301854915E-01 -1.000000000E-03 6.075296723E-02 5.474323709E-03 -3.332778312E-01
 -6.403101498E-02 -1.000000000E-03 6.193996547E-02 4.059164590E-03 -2.590823830E-01
 -7.167609088E-02 -1.000000000E-03 6.202608578E-02 4.076014715E-03 -2.672043001E-01
 -7.066151401E-02 -1.000000000E-03 6.201741927E-02 4.054511334E-03 -2.661304373E-01
 -7.127357985E-02 -1.000000000E-03 6.202407256E-02 4.045954809E-03 -2.668185428E-01
 1.190521425E-02 -1.000000000E-03 5.875019950E-02 3.322650650E-03 -1.861792042E-01
 1.026705597E-02 -1.000000000E-03 5.885506654E-02 3.389319019E-03 -1.862361778E-01
 1.822015870E-02 -1.000000000E-03 5.832145805E-02 3.310100707E-03 -1.802290362E-01
 4.138091744E-03 -1.000000000E-03 5.924544106E-02 3.369253684E-03 -1.888851816E-01
 1.012016409E-03 -1.000000000E-03 5.943464827E-02 3.213719682E-03 -1.923023370E-01
 -1.080322801E-01 -1.000000000E-03 6.168571454E-02 4.732978109E-03 -3.028790293E-01
 -1.134764200E-01 -1.000000000E-03 6.151432439E-02 4.757930106E-03 -3.088895007E-01
 -1.076350799E-01 -1.000000000E-03 6.169781221E-02 4.773209165E-03 -3.023699216E-01
 -1.014979581E-01 -1.000000000E-03 6.184727746E-02 4.861052837E-03 -2.970171143E-01
 -8.877825570E-02 -1.000000000E-03 6.203109480E-02 4.515064280E-03 -2.843590234E-01
 -7.851709021E-02 -1.000000000E-03 6.206146284E-02 4.475224876E-03 -2.731055435E-01
 -8.163773801E-02 -1.000000000E-03 6.205881179E-02 4.286742673E-03 -2.750445439E-01
 -3.500879500E-02 -1.000000000E-03 6.118696364E-02 3.740364349E-03 -2.294171833E-01
 3.639529099E-02 -1.000000000E-03 5.697395208E-02 3.141178032E-03 -1.621382355E-01
 3.447178790E-02 -1.000000000E-03 5.712340185E-02 3.133422583E-03 -1.638304669E-01
 3.618822341E-02 -1.000000000E-03 5.699065955E-02 3.145976122E-03 -1.623219967E-01
 3.623775396E-02 -1.000000000E-03 5.698672419E-02 3.141619284E-03 -1.623096965E-01
 3.080357369E-02 -1.000000000E-03 5.740713615E-02 3.113466025E-03 -1.670367052E-01
 4.437280136E-02 -1.000000000E-03 5.632992733E-02 3.016630298E-03 -1.545640229E-01
 3.062344648E-02 -1.000000000E-03 5.742088676E-02 3.119434435E-03 -1.672108002E-01
 -1.191722394E-01 -1.000000000E-03 6.129511852E-02 4.523341845E-03 -3.154615477E-01
 -1.214564776E-01 -1.000000000E-03 6.119643155E-02 4.663526812E-03 -3.158378583E-01
 -1.008260182E-01 -1.000000000E-03 6.186176286E-02 4.776904871E-03 -2.961098392E-01
 -9.676821086E-02 -1.000000000E-03 6.193497980E-02 4.582023183E-03 -2.910042983E-01
 -9.020290594E-02 -1.000000000E-03 6.201245994E-02 4.473422025E-03 -2.853759345E-01
 -1.156701703E-01 -1.000000000E-03 6.143299189E-02 4.732498254E-03 -3.113968715E-01
 -4.128753802E-02 -1.000000000E-03 6.140379134E-02 3.760995640E-03 -2.372005244E-01
 -1.254676461E-01 -1.000000000E-03 6.100639996E-02 5.366956420E-03 -3.249310994E-01
 -1.253449383E-01 -1.000000000E-03 6.101280245E-02 5.355174212E-03 -3.246627516E-01
 -1.253689471E-01 -1.000000000E-03 6.101162963E-02 5.360320862E-03 -3.247181206E-01
 -1.166512396E-02 -1.000000000E-03 6.014504077E-02 2.729547119E-03 -2.061102541E-01
 -1.251323219E-02 -1.000000000E-03 6.018908467E-02 2.778827516E-03 -2.069160708E-01
 -6.794594415E-03 -1.000000000E-03 5.988284712E-02 3.868673980E-03 -2.041740050E-01
 -1.822138483E-02 -1.000000000E-03 6.047302045E-02 3.752455139E-03 -2.145021836E-01
 6.234678078E-02 -1.000000000E-03 5.476675841E-02 3.052432568E-03 -1.379327329E-01
 5.785311824E-02 -1.000000000E-03 5.517184587E-02 3.104803200E-03 -1.428721966E-01
 4.794392841E-02 -1.000000000E-03 5.603010671E-02 3.100531138E-03 -1.516458742E-01
 5.218015128E-02 -1.000000000E-03 5.566790127E-02 3.146476994E-03 -1.480882604E-01
 2.976899018E-02 -1.000000000E-03 5.748451101E-02 3.145291230E-03 -1.682731190E-01
 6.726018247E-02 -1.000000000E-03 5.431372063E-02 2.856442397E-03 -1.327982996E-01
 7.142155214E-02 -1.000000000E-03 5.392318147E-02 2.709994882E-03 -1.284181555E-01
 -5.856773263E-03 -1.000000000E-03 5.983230189E-02 4.073959749E-03 -2.037509782E-01
 -1.270354534E-03 -1.000000000E-03 5.956998525E-02 3.384842375E-03 -1.952467723E-01
 -5.927789278E-03 -1.000000000E-03 5.983623412E-02 4.070856575E-03 -2.038883957E-01
 -5.785257471E-02 -1.000000000E-03 6.183517066E-02 4.307602294E-03 -2.525418212E-01
 -5.420502569E-02 -1.000000000E-03 6.175679894E-02 3.755139914E-03 -2.498359403E-01
 -6.152406607E-02 -1.000000000E-03 6.189561384E-02 4.226379726E-03 -2.560083912E-01
 1.912038683E-02 -1.000000000E-03 5.825967035E-02 3.314690472E-03 -1.793934696E-01
 2.514594068E-02 -1.000000000E-03 5.782907932E-02 3.332784322E-03 -1.739042384E-01
 1.892005198E-02 -1.000000000E-03 5.827393926E-02 3.306940565E-03 -1.796650525E-01
 -4.186387814E-02 -1.000000000E-03 6.142023461E-02 3.775055835E-03 -2.373986204E-01
 -3.915350503E-02 -1.000000000E-03 6.133043062E-02 3.751504711E-03 -2.343457647E-01
 -4.328823344E-02 -1.000000000E-03 6.146255261E-02 3.817585729E-03 -2.387390770E-01
 -4.834961770E-02 -1.000000000E-03 6.161289266E-02 3.908656068E-03 -2.423847236E-01
 -5.138088871E-02 -1.000000000E-03 6.168999535E-02 3.764674887E-03 -2.465676714E-01
 -8.917229056E-02 -1.000000000E-03 6.202636093E-02 4.560544217E-03 -2.847606316E-01
 -8.786320923E-02 -1.000000000E-03 6.203666204E-02 4.472589277E-03 -2.829430924E-01
 -1.618645074E-01 -1.000000000E-03 5.815456245E-02 5.820523527E-03 -3.652287776E-01
 -1.601133723E-01 -1.000000000E-03 5.834039786E-02 5.884305318E-03 -3.638307747E-01
 -1.564240417E-01 -1.000000000E-03 5.872774019E-02 5.721451387E-03 -3.600294082E-01
 -1.487805743E-01 -1.000000000E-03 5.943695828E-02 6.081105115E-03 -3.485324004E-01
 -1.462849465E-01 -1.000000000E-03 5.964062355E-02 5.859309036E-03 -3.466164209E-01
 -1.504292894E-01 -1.000000000E-03 5.929301063E-02 6.595935728E-03 -3.526639574E-01
 -1.532622383E-01 -1.000000000E-03 5.902576935E-02 6.196097400E-03 -3.563494654E-01
 -1.640983911E-01 -1.000000000E-03 5.789542007E-02 6.066332749E-03 -3.685535378E-01
 -1.666314536E-01 -1.000000000E-03 5.760104640E-02 6.049484685E-03 -3.713970204E-01
 -1.682519098E-01 -1.000000000E-03 5.739777764E-02 5.673438995E-03 -3.734258915E-01
 -1.952735624E-01 -1.000000000E-03 5.302393162E-02 7.069121269E-03 -4.103721411E-01
 -1.815961068E-01 -1.000000000E-03 5.551069764E-02 6.042592707E-03 -3.942122836E-01
 -1.787563494E-01 -1.000000000E-03 5.595219060E-02 5.867970540E-03 -3.853846588E-01
 -1.858406733E-01 -1.000000000E-03 5.480438902E-02 6.547087797E-03 -3.953952852E-01
 -1.829609926E-01 -1.000000000E-03 5.528815796E-02 6.680131527E-03 -3.922210504E-01
 -1.783609017E-01 -1.000000000E-03 5.601176275E-02 5.898089163E-03 -3.845719639E-01
 -1.786388130E-01 -1.000000000E-03 5.597048717E-02 5.860503531E-03 -3.848627584E-01
 -2.087118148E-01 -1.000000000E-03 4.984285485E-02 7.504927620E-03 -4.280107950E-01
 -2.023886127E-01 -1.000000000E-03 5.144553994E-02 6.990368946E-03 -4.208762015E-01
 -2.012655458E-01 -1.000000000E-03 5.171174715E-02 6.691643960E-03 -4.213426401E-01
 -2.037897823E-01 -1.000000000E-03 5.111007186E-02 7.332639614E-03 -4.229150648E-01
 -2.051753773E-01 -1.000000000E-03 5.076363153E-02 7.715814049E-03 -4.246298827E-01
 -2.180308551E-01 -1.000000000E-03 4.702030920E-02 7.006688549E-03 -4.359707011E-01
 -1.704998429E-01 -1.000000000E-03 5.711415257E-02 5.310725026E-03 -3.764986050E-01
 -1.723034690E-01 -1.000000000E-03 5.687337626E-02 5.809064642E-03 -3.803408474E-01
 -1.762079224E-01 -1.000000000E-03 5.633012763E-02 6.077091927E-03 -3.836685530E-01
 -1.754104293E-01 -1.000000000E-03 5.644217619E-02 6.070208886E-03 -3.838120360E-01
 -2.177222064E-01 -1.000000000E-03 4.712617929E-02 6.932576758E-03 -4.363063796E-01
 -2.081912992E-01 -1.000000000E-03 4.998096182E-02 7.485886259E-03 -4.281917775E-01
 -2.103042050E-01 -1.000000000E-03 4.939823001E-02 6.906195478E-03 -4.289825305E-01
 -2.064571122E-01 -1.000000000E-03 5.043989081E-02 7.761513170E-03 -4.263788439E-01
 -1.895150683E-01 -1.000000000E-03 5.414869124E-02 7.448174577E-03 -4.051207220E-01
 -1.923300868E-01 -1.000000000E-03 5.361329017E-02 7.517719317E-03 -4.098102440E-01
 -1.860533514E-01 -1.000000000E-03 5.476866292E-02 6.559641833E-03 -3.957605584E-01
 -1.895027334E-01 -1.000000000E-03 5.415094578E-02 7.444559650E-03 -4.051006077E-01
 -2.132081255E-01 -1.000000000E-03 4.855837940E-02 7.334549349E-03 -4.309794300E-01
 -2.114343449E-01 -1.000000000E-03 4.907993512E-02 6.574315142E-03 -4.298443442E-01
 -2.142214927E-01 -1.000000000E-03 4.824773602E-02 7.259913211E-03 -4.341811430E-01
 -1.991046284E-01 -1.000000000E-03 5.219906077E-02 6.796066146E-03 -4.199375385E-01
 -1.978583916E-01 -1.000000000E-03 5.247631718E-02 6.929941568E-03 -4.140506291E-01
 -1.983504552E-01 -1.000000000E-03 5.236939231E-02 6.955773624E-03 -4.197811431E-01
 -1.942310866E-01 -1.000000000E-03 5.323390931E-02 7.247864136E-03 -4.100986598E-01
 -1.957619051E-01 -1.000000000E-03 5.292140216E-02 7.093270535E-03 -4.071820351E-01
 -2.152845494E-01 -1.000000000E-03 4.791822640E-02 6.901011777E-03 -4.374601934E-01
 -2.174080165E-01 -1.000000000E-03 4.722918701E-02 6.931420260E-03 -4.360567161E-01
 -1.730385578E-01 -1.000000000E-03 5.677557816E-02 6.005966329E-03 -3.821582408E-01
 -2.402626382E-01 -1.000000000E-03 3.594627682E-02 6.434742871E-03 -3.140986157E-01
 -2.403615627E-01 -1.000000000E-03 3.586726844E-02 6.416275359E-03 -3.100950569E-01
 -2.406022385E-01 -1.000000000E-03 3.566739347E-02 6.452857274E-03 -3.018774310E-01
 -2.393504578E-01 -1.000000000E-03 3.665064411E-02 7.179421223E-03 -3.263172141E-01
 -2.466884414E-01 -1.000000000E-03 2.888702536E-02 3.847763289E-03 2.332395911E-02
 -2.469235978E-01 -1.000000000E-03 2.847446369E-02 3.621347877E-03 6.139297983E-02
 -2.464063639E-01 -1.000000000E-03 2.933953776E-02 3.990758561E-03 -2.861836893E-03
 -2.466161995E-01 -1.000000000E-03 2.900825679E-02 3.877957189E-03 1.316636847E-02
 -2.470740023E-01 -1.000000000E-03 2.821009400E-02 3.383393514E-03 8.410722875E-02
 -2.472119603E-01 -1.000000000E-03 2.794341762E-02 3.162262657E-03 1.109237513E-01
 -2.461773018E-01 -1.000000000E-03 2.970148469E-02 3.911243749E-03 -2.393458149E-02
 -2.473956262E-01 -1.000000000E-03 2.758955897E-02 2.838317799E-03 1.418024966E-01
 -2.476898305E-01 -1.000000000E-03 2.696332149E-02 2.464269839E-03 1.739586395E-01
 -2.476991822E-01 -1.000000000E-03 2.694317070E-02 2.447773243E-03 1.754170067E-01
 -2.418200999E-01 -1.000000000E-03 3.463092754E-02 6.070367490E-03 -2.669096326E-01
 -2.413586886E-01 -1.000000000E-03 3.503919185E-02 6.354814317E-03 -2.797084653E-01
 -2.426574786E-01 -1.000000000E-03 3.385897700E-02 5.600618763E-03 -2.425778370E-01
 -2.423437515E-01 -1.000000000E-03 3.415532146E-02 5.812749275E-03 -2.499182866E-01
 -2.339744064E-01 -1.000000000E-03 4.012745181E-02 7.672593415E-03 -4.024837854E-01
 -2.350808306E-01 -1.000000000E-03 3.948747572E-02 6.925673691E-03 -3.847476910E-01
 -2.369227436E-01 -1.000000000E-03 3.833787821E-02 7.171103009E-03 -3.659151147E-01
 -2.364660328E-01 -1.000000000E-03 3.863483880E-02 7.381672792E-03 -3.695203074E-01
 -2.365743969E-01 -1.000000000E-03 3.856763022E-02 7.393919450E-03 -3.682565457E-01
 -2.491058444E-01 -1.000000000E-03 2.032267379E-02 -3.271858341E-05 6.818928089E-01
 -2.490776619E-01 -1.000000000E-03 1.971267103E-02 -1.031512557E-04 7.206773601E-01
 -2.491023280E-01 -1.000000000E-03 2.012229646E-02 -6.023549937E-05 6.929487767E-01
 -2.491006258E-01 -1.000000000E-03 2.086612703E-02 7.551439063E-05 6.452856209E-01
 -2.490766325E-01 -1.000000000E-03 2.125817519E-02 1.854047442E-04 6.107240576E-01
 -2.429752188E-01 -1.000000000E-03 3.354824173E-02 5.218412998E-03 -2.310720543E-01
 -2.377250587E-01 -1.000000000E-03 3.780964358E-02 6.635898280E-03 -3.583687441E-01
 -2.378445348E-01 -1.000000000E-03 3.772714326E-02 6.666847013E-03 -3.585934715E-01
 -2.385666723E-01 -1.000000000E-03 3.722387799E-02 7.261036102E-03 -3.339031437E-01
 -2.490486745E-01 -1.000000000E-03 2.178893569E-02 2.883361961E-04 5.723828994E-01
 -2.489886241E-01 -1.000000000E-03 2.228500958E-02 4.534340765E-04 5.380247239E-01
 -2.436301186E-01 -1.000000000E-03 3.288177107E-02 5.326207524E-03 -2.031896597E-01
 -2.441239679E-01 -1.000000000E-03 3.234576526E-02 5.497864943E-03 -1.769373965E-01
 -2.436305277E-01 -1.000000000E-03 3.288133371E-02 5.326394505E-03 -2.031654226E-01
 -2.487012965E-01 -1.000000000E-03 1.698808751E-02 -2.768057958E-04 8.563981926E-01
 -2.489875734E-01 -1.000000000E-03 1.857805328E-02 -2.286186870E-04 7.863390639E-01
 -2.490361826E-01 -1.000000000E-03 1.893172501E-02 -1.926907183E-04 7.691256370E-01
 -2.475899525E-01 -1.000000000E-03 1.351369088E-02 -2.661519155E-04 9.596209745E-01
 -2.472200676E-01 -1.000000000E-03 1.268848207E-02 -1.933032491E-04 9.736319901E-01
 -2.479154306E-01 -1.000000000E-03 1.428020045E-02 -3.142631852E-04 9.459686419E-01
 -2.485251599E-01 -1.000000000E-03 1.618265387E-02 -3.018727183E-04 8.885301566E-01
 -2.481102185E-01 -1.000000000E-03 1.482590390E-02 -3.362907201E-04 9.313335410E-01
 -2.457441274E-01 -1.000000000E-03 3.033075647E-02 4.244126125E-03 -6.112573007E-02
 -2.459245497E-01 -1.000000000E-03 3.006908760E-02 4.175707754E-03 -4.561099892E-02
 -2.479801301E-01 -1.000000000E-03 2.627391713E-02 2.130751013E-03 2.193584086E-01
 -2.482235956E-01 -1.000000000E-03 2.560719562E-02 1.693779742E-03 2.866514960E-01
 -2.477095068E-01 -1.000000000E-03 2.691812407E-02 2.438074850E-03 1.775706188E-01
 -2.315298853E-01 -1.000000000E-03 4.144612275E-02 7.048163548E-03 -4.130878920E-01
 -2.486978569E-01 -1.000000000E-03 2.397679427E-02 9.850815660E-04 4.171038325E-01
 -2.487282907E-01 -1.000000000E-03 2.383958372E-02 9.583127080E-04 4.280738055E-01
 -2.485080026E-01 -1.000000000E-03 2.470935296E-02 1.288442836E-03 3.552885057E-01
 -2.483665749E-01 -1.000000000E-03 2.518155401E-02 1.502912673E-03 3.184761876E-01
 -2.338069194E-01 -1.000000000E-03 4.022421026E-02 7.820308445E-03 -4.050841616E-01
 -2.336818072E-01 -1.000000000E-03 4.029318867E-02 7.815225084E-03 -4.064783262E-01
 -2.485987542E-01 -1.000000000E-03 1.641102455E-02 -2.990156156E-04 8.819499959E-01
 -2.486269825E-01 -1.000000000E-03 1.653402394E-02 -2.951532007E-04 8.763322446E-01
 -2.489020099E-01 -1.000000000E-03 2.294702676E-02 6.311894109E-04 4.907390097E-01
 -2.326730519E-01 -1.000000000E-03 4.084696128E-02 7.252731724E-03 -4.027860734E-01
 -2.315180030E-01 -1.000000000E-03 4.145235056E-02 7.046906037E-03 -4.131366869E-01
 -2.323992757E-01 -1.000000000E-03 4.099045869E-02 7.203848251E-03 -4.052184161E-01
 -2.456323819E-01 -1.000000000E-03 3.047936259E-02 4.398037774E-03 -7.047350686E-02
 -2.451181341E-01 -1.000000000E-03 3.116431510E-02 4.957715135E-03 -1.117086148E-01
 -2.450312172E-01 -1.000000000E-03 3.127093527E-02 5.011035475E-03 -1.182237676E-01
 -2.393270262E-01 -1.000000000E-03 3.666844993E-02 7.186400917E-03 -3.265629887E-01
 -2.444508227E-01 -1.000000000E-03 3.197172108E-02 5.636177987E-03 -1.723209850E-01
 -2.445434309E-01 -1.000000000E-03 3.186563573E-02 5.584828613E-03 -1.676016588E-01
 -2.392423254E-01 -1.000000000E-03 3.673028123E-02 7.223303413E-03 -3.267930818E-01
 7.300178972E-01 -1.000000000E-03 -6.631248260E-02 1.442814906E-04 4.091957524E-01
 7.354272748E-01 -1.000000000E-03 -6.601918881E-02 1.148191782E-04 4.160458737E-01
 7.239314567E-01 -1.000000000E-03 -6.663674128E-02 1.507509620E-04 4.013264205E-01
 7.296200427E-01 -1.000000000E-03 -6.633387889E-02 1.513125990E-04 4.086568864E-01
 7.233749747E-01 -1.000000000E-03 -6.666649413E-02 1.857429117E-04 4.005822765E-01
 5.658720226E-01 -1.000000000E-03 -7.301479591E-02 5.797574047E-05 2.893838207E-01
 5.660224545E-01 -1.000000000E-03 -7.301033877E-02 8.169441431E-05 2.894184507E-01
 5.709270147E-01 -1.000000000E-03 -7.286866668E-02 1.026408232E-04 2.917446869E-01
 5.711479901E-01 -1.000000000E-03 -7.286227575E-02 9.141605957E-05 2.918978536E-01
 6.361060690E-01 -1.000000000E-03 -7.065102987E-02 6.816124105E-05 3.263194700E-01
 6.363244176E-01 -1.000000000E-03 -7.064265548E-02 6.391175981E-05 3.264410031E-01
 6.295624779E-01 -1.000000000E-03 -7.090232456E-02 1.226915519E-04 3.234155770E-01
 6.294091116E-01 -1.000000000E-03 -7.090806157E-02 1.308859707E-04 3.233089658E-01
 6.597734674E-01 -1.000000000E-03 -6.968834629E-02 6.303249659E-05 3.412333052E-01
 6.538826155E-01 -1.000000000E-03 -6.993602849E-02 8.740074567E-05 3.357396242E-01
 6.440880194E-01 -1.000000000E-03 -7.033594848E-02 1.505882133E-04 3.313212258E-01
 6.536353325E-01 -1.000000000E-03 -6.994627765E-02 8.403211732E-05 3.356226544E-01
 6.493111322E-01 -1.000000000E-03 -7.012456246E-02 1.017504839E-04 3.348814887E-01
 5.606041294E-01 -1.000000000E-03 -7.316294635E-02 1.758741273E-04 2.920137985E-01
 6.058059725E-01 -1.000000000E-03 -7.176017766E-02 1.323011852E-04 3.097834205E-01
 6.059992802E-01 -1.000000000E-03 -7.175358704E-02 1.316805699E-04 3.098439266E-01
 6.780991206E-01 -1.000000000E-03 -6.888341267E-02 1.977669767E-04 3.558050053E-01
 6.727393157E-01 -1.000000000E-03 -6.912428983E-02 2.405758162E-04 3.542169394E-01
 7.136740105E-01 -1.000000000E-03 -6.716938874E-02 2.807888183E-04 3.898040341E-01
 7.143173553E-01 -1.000000000E-03 -6.713653922E-02 2.921932190E-04 3.904695690E-01
 7.129764539E-01 -1.000000000E-03 -6.720562290E-02 3.099232445E-04 3.891935069E-01
 6.829839076E-01 -1.000000000E-03 -6.865999612E-02 1.306219878E-04 3.596191647E-01
 6.784026344E-01 -1.000000000E-03 -6.886959239E-02 1.941061638E-04 3.560323563E-01
 6.782323861E-01 -1.000000000E-03 -6.887727778E-02 1.849278719E-04 3.559027804E-01