TITLE     = "Surface mesh and solution"
VARIABLES = "x"
"y"
"z"
"cfx"
"Cp"
ZONE T="Slice: Y=-0.001"
STRANDID=0, SOLUTIONTIME=0
Nodes=589, Elements=588, ZONETYPE=FELineSeg
DATAPACKING=POINT
DT=(DOUBLE DOUBLE DOUBLE DOUBLE DOUBLE )
0.1166766000	-0.0009999500	0.0492123780	0.0022380996	-0.0892258960
0.1236394300	-0.0009999500	0.0484078820	0.0022053359	-0.0831793620
0.1322427700	-0.0009999500	0.0474145560	0.0021732448	-0.0757113020
0.1468135300	-0.0009999500	0.0456485640	0.0021187184	-0.0621313940
0.1502625200	-0.0009999500	0.0452306200	0.0021037375	-0.0588906670
0.1508272400	-0.0009999500	0.0451592020	0.0021023216	-0.0584358130
0.1698229200	-0.0009999500	0.0427426360	0.0020726689	-0.0415622070
0.1753592900	-0.0009999500	0.0420147180	0.0020922647	-0.0358624980
0.1827623100	-0.0009999500	0.0410308390	0.0020584725	-0.0296828730
0.1929463100	-0.0009999500	0.0396532040	0.0019500112	-0.0214099530
0.2018851900	-0.0009999500	0.0384202670	0.0018781737	-0.0113619360
0.2093929200	-0.0009999500	0.0373608620	0.0018376572	-0.0056385673
0.2176954900	-0.0009999500	0.0361864270	0.0017836139	0.0006067286
0.2242662200	-0.0009999500	0.0352340940	0.0017445591	0.0057955538
0.2321833500	-0.0009999500	0.0340829420	0.0016884881	0.0139146490
0.2392275000	-0.0009999500	0.0330378040	0.0016271828	0.0207118000
0.2505934500	-0.0009999500	0.0313274040	0.0016321480	0.0289167200
0.2536248600	-0.0009999500	0.0308751460	0.0016168420	0.0313798710
0.2616143200	-0.0009999500	0.0296484400	0.0015682334	0.0388931450
0.2693038000	-0.0009999500	0.0284639710	0.0015244634	0.0465372470
0.2719009800	-0.0009999500	0.0280532180	0.0014969432	0.0486974380
0.2908368700	-0.0009999500	0.0250641780	0.0013978623	0.0657429700
0.2922707500	-0.0009999500	0.0248317400	0.0013967987	0.0667338520
0.3207641800	-0.0009999500	0.0201804900	0.0013384185	0.0873849240
0.3214747900	-0.0009999500	0.0200626500	0.0013343528	0.0880216430
0.3223255000	-0.0009999500	0.0199188780	0.0013366165	0.0886999150
0.3410161400	-0.0009999500	0.0167773740	0.0013615945	0.1032182100
0.3488012900	-0.0009999500	0.0154496430	0.0012978461	0.1116040100
0.3580415200	-0.0009999500	0.0138553900	0.0012778756	0.1200050300
0.3694228200	-0.0009999500	0.0118782990	0.0012562400	0.1287839400
0.3706950200	-0.0009999500	0.0116574550	0.0012511805	0.1296854300
0.3769429000	-0.0009999500	0.0105516410	0.0012291031	0.1343574100
0.3916796100	-0.0009999500	0.0079446519	0.0011597768	0.1453161500
0.3950898600	-0.0009999500	0.0073293741	0.0011595940	0.1475021100
0.4054976700	-0.0009999500	0.0054469137	0.0011552776	0.1565949500
0.4168588200	-0.0009999500	0.0033928028	0.0011411943	0.1659606100
0.4179430300	-0.0009999500	0.0031960746	0.0011330573	0.1669456700
0.4196343700	-0.0009999500	0.0028845854	0.0011317144	0.1680454900
0.4410314300	-0.0009999500	-0.0010696828	0.0010288036	0.1847897900
0.4456628300	-0.0009999500	-0.0019377519	0.0010078607	0.1885157500
0.4620761900	-0.0009999500	-0.0050293417	0.0009737739	0.2005007900
0.4711232200	-0.0009999500	-0.0067569711	0.0009497850	0.2069685000
0.4872530700	-0.0009999500	-0.0098570567	0.0008901351	0.2171270400
0.5079664600	-0.0009999500	-0.0138946190	0.0008706378	0.2317340200
0.5095692900	-0.0009999500	-0.0142110780	0.0008675070	0.2327837200
0.5302668800	-0.0009999500	-0.0183159450	0.0008032273	0.2456917200
0.5428916800	-0.0009999500	-0.0208526510	0.0007928017	0.2572931100
0.5500335100	-0.0009999500	-0.0222971460	0.0007863101	0.2640051500
0.5641271500	-0.0009999500	-0.0251700710	0.0007442004	0.2737173700
0.5733347500	-0.0009999500	-0.0270658040	0.0007216097	0.2805889200
0.5831173700	-0.0009999500	-0.0290874710	0.0006725623	0.2881729600
0.5953794700	-0.0009999500	-0.0316560270	0.0006384643	0.2970537200
0.6050764300	-0.0009999500	-0.0336872300	0.0005991622	0.3037476200
0.6124837400	-0.0009999500	-0.0352608150	0.0005906753	0.3108440600
0.6189967400	-0.0009999500	-0.0366428640	0.0005731536	0.3163309700
0.6226512200	-0.0009999500	-0.0374233010	0.0005581655	0.3194343100
0.6383307600	-0.0009999500	-0.0407987980	0.0004639965	0.3336351200
0.6400404000	-0.0009999500	-0.0411665100	0.0004527424	0.3350447100
0.6406446100	-0.0009999500	-0.0412982810	0.0004497302	0.3354951700
0.6418074400	-0.0009999500	-0.0415525100	0.0004461722	0.3364959700
0.6595395800	-0.0009999500	-0.0454274560	0.0003888213	0.3492818800
0.6630767600	-0.0009999500	-0.0462022390	0.0003744548	0.3520866000
0.6760254500	-0.0009999500	-0.0490734880	0.0003155241	0.3632945100
0.6767423700	-0.0009999500	-0.0492323900	0.0003092778	0.3641150300
0.6896484500	-0.0009999500	-0.0521256360	0.0002916560	0.3747791100
0.6904836900	-0.0009999500	-0.0523107830	0.0002892465	0.3754079300
0.6918522100	-0.0009999500	-0.0526188650	0.0002861308	0.3766697900
0.7055024500	-0.0009999500	-0.0557260960	0.0002602177	0.3900537500
0.7121210700	-0.0009999500	-0.0572397410	0.0001667280	0.3991867300
0.7177943000	-0.0009999500	-0.0585430600	0.0001545200	0.4074246900
0.7226949300	-0.0009999500	-0.0596693790	0.0001352496	0.4126844700
0.7281544800	-0.0009999500	-0.0609328080	0.0001449991	0.4192974600
0.7312305000	-0.0009999500	-0.0616496580	0.0001311829	0.4231136100
0.7333204200	-0.0009999500	-0.0621341060	0.0001146635	0.4259148800
0.7367147800	-0.0009999500	-0.0629240350	0.0001062991	0.4323921800
0.7380015300	-0.0009999500	-0.0632262160	0.0000804860	0.4344872800
0.7420076100	-0.0009999500	-0.0641618300	0.0001243650	0.4413321000
0.7427565500	-0.0009999500	-0.0643378790	0.0000991642	0.4429137700
0.7429383400	-0.0009999500	-0.0643807870	0.0000845611	0.4431338000
0.7451131900	-0.0009999500	-0.0648900270	0.0000712283	0.4546621700
0.7451505100	-0.0009999500	-0.0648988260	0.0000683835	0.4547350400
0.7451619500	-0.0009999500	-0.0649015080	0.0000685125	0.4547943500
0.7462245200	-0.0009999500	-0.0651506110	0.0000344306	0.4604265400
0.7462328700	-0.0009999500	-0.0651525860	0.0000334223	0.4604385800
0.7466607100	-0.0009999500	-0.0652529450	0.0000261754	0.4639313200
0.7466631500	-0.0009999500	-0.0652535110	0.0000254601	0.4639257800
0.7468677200	-0.0009999500	-0.0653015080	0.0000095288	0.4648518600
0.7470303200	-0.0009999500	-0.0653396550	0.0000106811	0.4661005400
0.7470310300	-0.0009999500	-0.0653398260	0.0000107562	0.4661060000
0.7471095900	-0.0009999500	-0.0653582590	0.0000283586	0.4667828400
0.7471098300	-0.0009999500	-0.0653583110	0.0000290614	0.4667878200
0.7471299800	-0.0009999500	-0.0653630350	0.0000502576	0.4673570100
0.7471300400	-0.0009999500	-0.0653630570	0.0000502875	0.4673508100
0.7471385600	-0.0009999500	-0.0653650610	0.0000059594	0.4675321300
0.7471435700	-0.0009999500	-0.0653662310	0.0001052761	0.4677918900
0.7471460100	-0.0009999500	-0.0653668050	0.0002554175	0.4675883900
0.7471432100	-0.0009999500	-0.0653669690	0.0001989810	0.4670566900
0.7471383800	-0.0009999500	-0.0653672370	0.0002579572	0.4672927000
0.7471383200	-0.0009999500	-0.0653672370	0.0002565244	0.4672966600
0.7471185300	-0.0009999500	-0.0653683620	0.0000837168	0.4658711000
0.7471182900	-0.0009999500	-0.0653683770	0.0000839147	0.4658737500
0.7470506400	-0.0009999500	-0.0653722060	0.0001379243	0.4651810800
0.7470501700	-0.0009999500	-0.0653722360	0.0001377300	0.4651775700
0.7470495100	-0.0009999500	-0.0653722730	0.0001377481	0.4651726200
0.7469230300	-0.0009999500	-0.0653794330	0.0000801812	0.4626906200
0.7469209400	-0.0009999500	-0.0653795530	0.0000821692	0.4626848100
0.7466415200	-0.0009999500	-0.0653953480	0.0000944596	0.4597334900
0.7466337700	-0.0009999500	-0.0653957950	0.0000948965	0.4596649400
0.7458835200	-0.0009999500	-0.0654381810	0.0001162352	0.4565208900
0.7452063000	-0.0009999500	-0.0654763580	0.0001896233	0.4531648500
0.7451881200	-0.0009999500	-0.0654774080	0.0001965408	0.4531165700
0.7434974300	-0.0009999500	-0.0655723590	0.0002291149	0.4462917400
0.7434331800	-0.0009999500	-0.0655759950	0.0002329399	0.4460592000
0.7397157500	-0.0009999500	-0.0657829940	0.0003069078	0.4370211700
0.7395576200	-0.0009999500	-0.0657918010	0.0003061155	0.4366223500
0.7346447700	-0.0009999500	-0.0660617200	0.0003829800	0.4273718000
0.7345056500	-0.0009999500	-0.0660693420	0.0003849191	0.4271064400
0.7300189700	-0.0009999500	-0.0663122310	0.0003747550	0.4177323300
0.7297740600	-0.0009999500	-0.0663254260	0.0003838000	0.4173951400
0.7219973800	-0.0009999500	-0.0667382630	0.0004376072	0.4056581600
0.7213835700	-0.0009999500	-0.0667707700	0.0004701005	0.4048718200
0.7100864600	-0.0009999500	-0.0673514160	0.0004876215	0.3933948000
0.7093170900	-0.0009999500	-0.0673901510	0.0004737965	0.3925185800
0.6998225500	-0.0009999500	-0.0678607370	0.0005127932	0.3823224900
0.6991950900	-0.0009999500	-0.0678916500	0.0005255777	0.3816865100
0.6897053100	-0.0009999500	-0.0683465230	0.0005625940	0.3722109800
0.6891298900	-0.0009999500	-0.0683734790	0.0005420581	0.3716892900
0.6805601100	-0.0009999500	-0.0687712430	0.0005536808	0.3632135700
0.6799960700	-0.0009999500	-0.0687971340	0.0005715671	0.3627872200
0.6683930800	-0.0009999500	-0.0693163650	0.0006002562	0.3544300500
0.6679226800	-0.0009999500	-0.0693368610	0.0005907658	0.3540336800
0.6564048500	-0.0009999500	-0.0698305070	0.0006338962	0.3460017700
0.6559950700	-0.0009999500	-0.0698476960	0.0006231001	0.3457416900
0.6459234400	-0.0009999500	-0.0702620890	0.0007562591	0.3366259000
0.6457307900	-0.0009999500	-0.0702698380	0.0007549676	0.3364813600
0.6453105200	-0.0009999500	-0.0702862740	0.0007653577	0.3362683100
0.6283358300	-0.0009999500	-0.0709486900	0.0005940690	0.3265225900
0.6281346700	-0.0009999500	-0.0709562000	0.0005815697	0.3263701800
0.6170034400	-0.0009999500	-0.0713663470	0.0006880694	0.3195323900
0.6168094900	-0.0009999500	-0.0713732990	0.0006911626	0.3194244500
0.6076963500	-0.0009999500	-0.0716950520	0.0006832246	0.3144564300
0.6075253500	-0.0009999500	-0.0717009600	0.0006835493	0.3143608000
0.5986362100	-0.0009999500	-0.0720026940	0.0007090865	0.3094248500
0.5984627600	-0.0009999500	-0.0720084680	0.0007113520	0.3093239100
0.5900263800	-0.0009999500	-0.0722838270	0.0007292142	0.3050597300
0.5897591700	-0.0009999500	-0.0722923430	0.0007296683	0.3049236800
0.5807853900	-0.0009999500	-0.0725735500	0.0007321063	0.3006616800
0.5805684300	-0.0009999500	-0.0725800920	0.0007349147	0.3005596400
0.5722162100	-0.0009999500	-0.0728310050	0.0007392215	0.2963318500
0.5719623600	-0.0009999500	-0.0728383730	0.0007424203	0.2962042400
0.5651531200	-0.0009999500	-0.0730352250	0.0007539667	0.2928145800
0.5575727800	-0.0009999500	-0.0732462330	0.0006651738	0.2892981800
0.5572719000	-0.0009999500	-0.0732546520	0.0006593295	0.2891418300
0.5465856200	-0.0009999500	-0.0735377000	0.0009033589	0.2841594800
0.5463916100	-0.0009999500	-0.0735428180	0.0009022235	0.2840746300
0.5462356200	-0.0009999500	-0.0735466930	0.0009052544	0.2840188100
0.5384569200	-0.0009999500	-0.0737421740	0.0006842814	0.2802051300
0.5382850200	-0.0009999500	-0.0737463380	0.0006835110	0.2801406700
0.5312545900	-0.0009999500	-0.0739153620	0.0007234789	0.2777109700
0.5253085500	-0.0009999500	-0.0740526620	0.0009005077	0.2753724500
0.5251641900	-0.0009999500	-0.0740561190	0.0008953005	0.2752930500
0.5250242400	-0.0009999500	-0.0740592410	0.0008977616	0.2752405100
0.5166384600	-0.0009999500	-0.0742441120	0.0007148245	0.2715450200
0.5164786600	-0.0009999500	-0.0742474940	0.0007175931	0.2714785000
0.5082800400	-0.0009999500	-0.0744183590	0.0008270726	0.2675023400
0.5081087900	-0.0009999500	-0.0744217780	0.0008284690	0.2674329300
0.4977902800	-0.0009999500	-0.0746229440	0.0007956779	0.2637092500
0.4975680700	-0.0009999500	-0.0746271010	0.0007932396	0.2636286900
0.4891787200	-0.0009999500	-0.0747792500	0.0007894513	0.2605787200
0.4889329100	-0.0009999500	-0.0747834370	0.0007984915	0.2605087200
0.4765270100	-0.0009999500	-0.0749896020	0.0009155259	0.2564643000
0.4763655100	-0.0009999500	-0.0749922170	0.0009105309	0.2563848800
0.4761217800	-0.0009999500	-0.0749958900	0.0009134119	0.2563132300
0.4677570200	-0.0009999500	-0.0751221550	0.0005924819	0.2533821500
0.4579411400	-0.0009999500	-0.0752572120	0.0006978082	0.2501852500
0.4576838000	-0.0009999500	-0.0752607360	0.0006880875	0.2500832700
0.4499037300	-0.0009999500	-0.0753577650	0.0008009071	0.2468972100
0.4496859300	-0.0009999500	-0.0753604250	0.0008063747	0.2468410700
0.4412276100	-0.0009999500	-0.0754558890	0.0008664711	0.2439272300
0.4411242900	-0.0009999500	-0.0754569620	0.0008594300	0.2438759500
0.4316287900	-0.0009999500	-0.0755516510	0.0010317336	0.2401807800
0.4315041000	-0.0009999500	-0.0755528730	0.0010344159	0.2401467300
0.4313417400	-0.0009999500	-0.0755543260	0.0010406334	0.2400970500
0.4231385600	-0.0009999500	-0.0756254790	0.0008856265	0.2378951000
0.4229053000	-0.0009999500	-0.0756273570	0.0008948771	0.2378252300
0.4152281600	-0.0009999500	-0.0756848450	0.0006800078	0.2359704200
0.4081304400	-0.0009999500	-0.0757300930	0.0009823006	0.2336002300
0.4078995900	-0.0009999500	-0.0757314340	0.0009716231	0.2335145800
0.4077692300	-0.0009999500	-0.0757322680	0.0009775052	0.2334671800
0.4016704000	-0.0009999500	-0.0757650880	0.0008457515	0.2313676900
0.4014173400	-0.0009999500	-0.0757663320	0.0008506163	0.2313102200
0.3957451000	-0.0009999500	-0.0757918060	0.0006877016	0.2301273900
0.3895303000	-0.0009999500	-0.0758140910	0.0008986524	0.2276932400
0.3893161400	-0.0009999500	-0.0758146790	0.0008871634	0.2276178900
0.3890529300	-0.0009999500	-0.0758155730	0.0009053561	0.2275445300
0.3784819200	-0.0009999500	-0.0758397280	0.0008140770	0.2250402400
0.3782421600	-0.0009999500	-0.0758401380	0.0008205419	0.2249576600
0.3706367900	-0.0009999500	-0.0758464860	0.0008398064	0.2229465200
0.3703320600	-0.0009999500	-0.0758465450	0.0008287946	0.2228966200
0.3629005000	-0.0009999500	-0.0758436170	0.0010163059	0.2206681400
0.3627004000	-0.0009999500	-0.0758433790	0.0010053161	0.2206170400
0.3625414100	-0.0009999500	-0.0758433190	0.0010237193	0.2205729300
0.3551296000	-0.0009999500	-0.0758312200	0.0011082098	0.2177401000
0.3549809200	-0.0009999500	-0.0758307870	0.0010925227	0.2176781300
0.3548433800	-0.0009999500	-0.0758304070	0.0010936113	0.2176212200
0.3474048100	-0.0009999500	-0.0758089130	0.0009385003	0.2155512600
0.3473114100	-0.0009999500	-0.0758085400	0.0009343290	0.2155366500
0.3427952200	-0.0009999500	-0.0757908750	0.0011349303	0.2146142700
0.3427051900	-0.0009999500	-0.0757904430	0.0011360075	0.2145962700
0.3376756900	-0.0009999500	-0.0757666160	0.0008874747	0.2136694600
0.3374867100	-0.0009999500	-0.0757655580	0.0009094067	0.2136094000
0.3294534400	-0.0009999500	-0.0757181120	0.0008856528	0.2118777800
0.3292360900	-0.0009999500	-0.0757166740	0.0008704121	0.2118411500
0.3195052700	-0.0009999500	-0.0756433530	0.0008003835	0.2094838600
0.3192983000	-0.0009999500	-0.0756416920	0.0007963775	0.2094345800
0.3117085700	-0.0009999500	-0.0755722670	0.0009264826	0.2069240400
0.3115695700	-0.0009999500	-0.0755709710	0.0009200868	0.2068965300
0.3031285400	-0.0009999500	-0.0754809080	0.0011337745	0.2051665900
0.3030243200	-0.0009999500	-0.0754798050	0.0011298448	0.2051339300
0.3029412600	-0.0009999500	-0.0754787770	0.0011318976	0.2051271600
0.2963812100	-0.0009999500	-0.0753992650	0.0009746025	0.2041226000
0.2962825300	-0.0009999500	-0.0753978940	0.0009785624	0.2041076400
0.2905345900	-0.0009999500	-0.0753212500	0.0007561384	0.2037486000
0.2869258800	-0.0009999500	-0.0752697360	0.0011282043	0.2031914400
0.2867859000	-0.0009999500	-0.0752675680	0.0011357405	0.2031563500
0.2829213400	-0.0009999500	-0.0752094460	0.0007699043	0.2024819300
0.2790938600	-0.0009999500	-0.0751488280	0.0009895408	0.2008565400
0.2789452400	-0.0009999500	-0.0751464890	0.0009829443	0.2008210100
0.2720343200	-0.0009999500	-0.0750292540	0.0007586628	0.1995140900
0.2718913300	-0.0009999500	-0.0750266390	0.0007676403	0.1994735400
0.2665312600	-0.0009999500	-0.0749287230	0.0011653448	0.1980783900
0.2663797700	-0.0009999500	-0.0749258180	0.0011632937	0.1980639000
0.2611991500	-0.0009999500	-0.0748252350	0.0007057091	0.1976386900
0.2554537100	-0.0009999500	-0.0747067480	0.0010129764	0.1963366000
0.2553140200	-0.0009999500	-0.0747039910	0.0010064996	0.1963033500
0.2552376400	-0.0009999500	-0.0747023450	0.0010062973	0.1962899900
0.2496522200	-0.0009999500	-0.0745800880	0.0010238514	0.1951436500
0.2494921700	-0.0009999500	-0.0745762960	0.0010324396	0.1951292600
0.2443606000	-0.0009999500	-0.0744577200	0.0007621528	0.1950201800
0.2376189200	-0.0009999500	-0.0742926670	0.0009970665	0.1944282200
0.2374389600	-0.0009999500	-0.0742882340	0.0009974327	0.1944177900
0.2330531200	-0.0009999500	-0.0741751120	0.0010123662	0.1934915800
0.2328570500	-0.0009999500	-0.0741698590	0.0010211296	0.1934500800
0.2268410600	-0.0009999500	-0.0740071540	0.0010248066	0.1927120100
0.2267127500	-0.0009999500	-0.0740036820	0.0010130187	0.1926924600
0.2229076600	-0.0009999500	-0.0738962220	0.0007984877	0.1916461000
0.2168782500	-0.0009999500	-0.0737186520	0.0010813218	0.1902539400
0.2167852400	-0.0009999500	-0.0737160150	0.0010685300	0.1902384500
0.2167208200	-0.0009999500	-0.0737140250	0.0010769423	0.1902380000
0.2104473300	-0.0009999500	-0.0735196550	0.0011946872	0.1905106900
0.2103738300	-0.0009999500	-0.0735173750	0.0011919057	0.1905031500
0.2102981700	-0.0009999500	-0.0735148790	0.0012009261	0.1905068200
0.2043962600	-0.0009999500	-0.0733229000	0.0010233145	0.1904830600
0.2042337500	-0.0009999500	-0.0733174610	0.0010216218	0.1904557000
0.1985732000	-0.0009999500	-0.0731248560	0.0008945447	0.1897812600
0.1928852900	-0.0009999500	-0.0729228480	0.0010810775	0.1887928500
0.1927062400	-0.0009999500	-0.0729164180	0.0010817280	0.1887756300
0.1830419000	-0.0009999500	-0.0725532700	0.0011135579	0.1877237100
0.1829343600	-0.0009999500	-0.0725491870	0.0011025172	0.1877113400
0.1772913200	-0.0009999500	-0.0723253710	0.0011680869	0.1868410000
0.1772248400	-0.0009999500	-0.0723227410	0.0011693573	0.1868338900
0.1727832600	-0.0009999500	-0.0721403880	0.0013068985	0.1866626600
0.1727061700	-0.0009999500	-0.0721371990	0.0013112021	0.1866500700
0.1668958800	-0.0009999500	-0.0718902650	0.0010579468	0.1866846700
0.1668158000	-0.0009999500	-0.0718868300	0.0010595524	0.1866847900
0.1605838800	-0.0009999500	-0.0716112030	0.0012391989	0.1864360000
0.1605181200	-0.0009999500	-0.0716082530	0.0012339377	0.1864380400
0.1604308800	-0.0009999500	-0.0716043340	0.0012428834	0.1864490500
0.1552130000	-0.0009999500	-0.0713648270	0.0010499123	0.1871699100
0.1550564000	-0.0009999500	-0.0713574890	0.0010583727	0.1871593000
0.1475385900	-0.0009999500	-0.0709980500	0.0008512945	0.1877318800
0.1474046000	-0.0009999500	-0.0709915680	0.0008564717	0.1877335600
0.1415808300	-0.0009999500	-0.0707012040	0.0011276176	0.1872918000
0.1414598800	-0.0009999500	-0.0706949900	0.0011102832	0.1873034700
0.1413192700	-0.0009999500	-0.0706879420	0.0011260738	0.1872932500
0.1365920600	-0.0009999500	-0.0704444200	0.0007318140	0.1882593000
0.1333039700	-0.0009999500	-0.0702708440	0.0009829675	0.1878637500
0.1331393900	-0.0009999500	-0.0702620970	0.0009775624	0.1878701600
0.1288327700	-0.0009999500	-0.0700295190	0.0010073354	0.1874539600
0.1286423200	-0.0009999500	-0.0700192670	0.0010284223	0.1874346300
0.1219165000	-0.0009999500	-0.0696438700	0.0010211104	0.1871249400
0.1217079900	-0.0009999500	-0.0696319270	0.0009998018	0.1871085000
0.1159263800	-0.0009999500	-0.0692971570	0.0010707328	0.1867913000
0.1157588300	-0.0009999500	-0.0692873150	0.0010666910	0.1868067700
0.1096742700	-0.0009999500	-0.0689227210	0.0011038556	0.1868570400
0.1095604700	-0.0009999500	-0.0689158220	0.0011080686	0.1868514600
0.1025432600	-0.0009999500	-0.0684791950	0.0012949097	0.1862614600
0.1024385600	-0.0009999500	-0.0684725490	0.0012790025	0.1862637100
0.1023253700	-0.0009999500	-0.0684653070	0.0012877632	0.1862684800
0.0947009250	-0.0009999500	-0.0679706190	0.0008536806	0.1872781100
0.0891594290	-0.0009999500	-0.0675974120	0.0011793149	0.1873053800
0.0890666170	-0.0009999500	-0.0675912050	0.0011756167	0.1873161800
0.0889899130	-0.0009999500	-0.0675859450	0.0011760528	0.1873323900
0.0830255670	-0.0009999500	-0.0671710450	0.0011543095	0.1879622000
0.0829448180	-0.0009999500	-0.0671653230	0.0011553744	0.1879727800
0.0791907240	-0.0009999500	-0.0668969820	0.0011196095	0.1884874100
0.0790894030	-0.0009999500	-0.0668895540	0.0011203664	0.1884891500
0.0736488550	-0.0009999500	-0.0664905310	0.0007503261	0.1893443500
0.0694489330	-0.0009999500	-0.0661741350	0.0013794108	0.1898362600
0.0693839120	-0.0009999500	-0.0661692400	0.0013733898	0.1898329000
0.0693002720	-0.0009999500	-0.0661627200	0.0013844507	0.1898580600
0.0624328700	-0.0009999500	-0.0656291920	0.0010006571	0.1912016700
0.0623693990	-0.0009999500	-0.0656242070	0.0009933371	0.1912163200
0.0582180100	-0.0009999500	-0.0652917180	0.0011703076	0.1912504600
0.0581271350	-0.0009999500	-0.0652843420	0.0011688484	0.1912584600
0.0550403970	-0.0009999500	-0.0650321620	0.0009228118	0.1923629000
0.0517968350	-0.0009999500	-0.0647625630	0.0011201796	0.1927937600
0.0517062400	-0.0009999500	-0.0647548660	0.0011299046	0.1928116700
0.0467393510	-0.0009999500	-0.0643326040	0.0009397877	0.1937878400
0.0466258560	-0.0009999500	-0.0643228590	0.0009357473	0.1937962600
0.0412467420	-0.0009999500	-0.0638524220	0.0012595378	0.1940501900
0.0411800260	-0.0009999500	-0.0638465880	0.0012514955	0.1940644800
0.0368578920	-0.0009999500	-0.0634585320	0.0012949324	0.1947936000
0.0367911420	-0.0009999500	-0.0634524230	0.0012990903	0.1948048600
0.0325802970	-0.0009999500	-0.0630655660	0.0008787531	0.1968394400
0.0288519230	-0.0009999500	-0.0627156570	0.0015101502	0.1976591900
0.0287417660	-0.0009999500	-0.0627051960	0.0015191172	0.1976819900
0.0241112040	-0.0009999500	-0.0622607250	0.0012679023	0.1993985800
0.0240132510	-0.0009999500	-0.0622512360	0.0012722219	0.1994158000
0.0203810300	-0.0009999500	-0.0618947410	0.0012385001	0.2005167300
0.0202449770	-0.0009999500	-0.0618812290	0.0012413204	0.2005833200
0.0159670790	-0.0009999500	-0.0614522880	0.0011591230	0.2023463100
0.0157875050	-0.0009999500	-0.0614339780	0.0011678710	0.2023755800
0.0117467580	-0.0009999500	-0.0610195880	0.0011704737	0.2035342500
0.0116057830	-0.0009999500	-0.0610049630	0.0011651794	0.2035909700
0.0067394744	-0.0009999500	-0.0604937340	0.0010028363	0.2060629100
0.0065643573	-0.0009999500	-0.0604750400	0.0010146651	0.2060469400
0.0019494349	-0.0009999500	-0.0599776390	0.0011446459	0.2070273900
0.0016853777	-0.0009999500	-0.0599487720	0.0011532367	0.2071506800
-0.0017445460	-0.0009999500	-0.0595709530	0.0015891366	0.2088621300
-0.0021019706	-0.0009999500	-0.0595306680	0.0016279299	0.2089820100
-0.0072676549	-0.0009999500	-0.0589479800	0.0014406791	0.2115412700
-0.0079453811	-0.0009999500	-0.0588696110	0.0015510835	0.2116330000
-0.0139710290	-0.0009999500	-0.0581671860	0.0016522164	0.2140903200
-0.0148832810	-0.0009999500	-0.0580594240	0.0016785669	0.2143630400
-0.0206305570	-0.0009999500	-0.0573646540	0.0016495440	0.2162457600
-0.0217117780	-0.0009999500	-0.0572330880	0.0015485210	0.2167111300
-0.0287751000	-0.0009999500	-0.0563462340	0.0016421731	0.2196151000
-0.0293253250	-0.0009999500	-0.0562768910	0.0016110346	0.2198676900
-0.0302647710	-0.0009999500	-0.0561556410	0.0017287566	0.2203052300
-0.0349491050	-0.0009999500	-0.0555467010	0.0014933500	0.2233887800
-0.0410152000	-0.0009999500	-0.0547309590	0.0017231288	0.2253060600
-0.0426757000	-0.0009999500	-0.0545078520	0.0016017990	0.2260902500
-0.0433426540	-0.0009999500	-0.0544158150	0.0016874016	0.2264115400
-0.0500420590	-0.0009999500	-0.0534790420	0.0015844932	0.2303691500
-0.0505504530	-0.0009999500	-0.0534065850	0.0014786276	0.2308546500
-0.0516427760	-0.0009999500	-0.0532485430	0.0015972636	0.2312495300
-0.0577318850	-0.0009999500	-0.0523636750	0.0013887756	0.2349291900
-0.0617041400	-0.0009999500	-0.0517682060	0.0017409703	0.2366186500
-0.0625039640	-0.0009999500	-0.0516480130	0.0016387781	0.2371671600
-0.0628830340	-0.0009999500	-0.0515902900	0.0016911556	0.2373036900
-0.0685011890	-0.0009999500	-0.0507233440	0.0016557173	0.2412704700
-0.0688834560	-0.0009999500	-0.0506636720	0.0016314912	0.2417022400
-0.0695078970	-0.0009999500	-0.0505648220	0.0017265447	0.2422757100
-0.0721896370	-0.0009999500	-0.0501403850	0.0015122284	0.2452081900
-0.0759557780	-0.0009999500	-0.0495315490	0.0014928329	0.2479463400
-0.0773877050	-0.0009999500	-0.0492973480	0.0015205798	0.2484358300
-0.0833736960	-0.0009999500	-0.0482970070	0.0017490275	0.2534082500
-0.0847624990	-0.0009999500	-0.0480610360	0.0017072765	0.2546357800
-0.0871379970	-0.0009999500	-0.0476469770	0.0019586078	0.2560895100
-0.0910496410	-0.0009999500	-0.0469666160	0.0020083318	0.2593170700
-0.0928348600	-0.0009999500	-0.0466471430	0.0020424082	0.2609899300
-0.0959307480	-0.0009999500	-0.0460885020	0.0021112458	0.2636171600
-0.0982045460	-0.0009999500	-0.0456718880	0.0019932241	0.2660653600
-0.1029312500	-0.0009999500	-0.0447885990	0.0020049621	0.2703284300
-0.1040074800	-0.0009999500	-0.0445839280	0.0019767310	0.2712720900
-0.1087058100	-0.0009999500	-0.0436748900	0.0019119567	0.2759445300
-0.1095365400	-0.0009999500	-0.0435126800	0.0018224589	0.2768937600
-0.1104764000	-0.0009999500	-0.0433252860	0.0019405055	0.2779841100
-0.1146909700	-0.0009999500	-0.0424814780	0.0018577485	0.2836570100
-0.1157749700	-0.0009999500	-0.0422607290	0.0019748784	0.2852058700
-0.1186066000	-0.0009999500	-0.0416765400	0.0021710436	0.2890885200
-0.1197204000	-0.0009999500	-0.0414447670	0.0020586629	0.2902529200
-0.1217331400	-0.0009999500	-0.0410194170	0.0023540311	0.2924022100
-0.1239883700	-0.0009999500	-0.0405413250	0.0022017244	0.2948669800
-0.1276009200	-0.0009999500	-0.0397588540	0.0026060512	0.2976144000
-0.1278538400	-0.0009999500	-0.0397039020	0.0025855298	0.2979280400
-0.1281951700	-0.0009999500	-0.0396278840	0.0026128761	0.2982934400
-0.1319457900	-0.0009999500	-0.0387881320	0.0017995255	0.3046093300
-0.1324909200	-0.0009999500	-0.0386649150	0.0017918386	0.3051868400
-0.1369312000	-0.0009999500	-0.0376456190	0.0016942489	0.3120376800
-0.1377452200	-0.0009999500	-0.0374554840	0.0017130731	0.3130785800
-0.1420421500	-0.0009999500	-0.0364370610	0.0018374953	0.3208722200
-0.1431362500	-0.0009999500	-0.0361733060	0.0020101981	0.3225421600
-0.1459365900	-0.0009999500	-0.0354899730	0.0020775667	0.3283444300
-0.1479289500	-0.0009999500	-0.0349940470	0.0022568337	0.3313984300
-0.1508078700	-0.0009999500	-0.0342693520	0.0022973192	0.3368080900
-0.1542141400	-0.0009999500	-0.0333912630	0.0027382311	0.3426462700
-0.1551086900	-0.0009999500	-0.0331571920	0.0027783385	0.3444124500
-0.1578152900	-0.0009999500	-0.0324404350	0.0023571943	0.3516184700
-0.1605178100	-0.0009999500	-0.0317058530	0.0025174423	0.3559322400
-0.1616353700	-0.0009999500	-0.0314005580	0.0024664913	0.3582099100
-0.1657994700	-0.0009999500	-0.0302338920	0.0024046271	0.3690545900
-0.1665547300	-0.0009999500	-0.0300184800	0.0023953577	0.3711538300
-0.1676249700	-0.0009999500	-0.0297019820	0.0024888615	0.3735777400
-0.1719760400	-0.0009999500	-0.0284312910	0.0025058288	0.3835784800
-0.1724828800	-0.0009999500	-0.0282797550	0.0025119372	0.3856367200
-0.1763304800	-0.0009999500	-0.0271057690	0.0027761554	0.3949934500
-0.1764950500	-0.0009999500	-0.0270553590	0.0027765072	0.3954094100
-0.1766219100	-0.0009999500	-0.0270156060	0.0027758640	0.3957190200
-0.1807494800	-0.0009999500	-0.0257100980	0.0024236023	0.4122064100
-0.1814726000	-0.0009999500	-0.0254762820	0.0024634654	0.4142687900
-0.1855608100	-0.0009999500	-0.0241262070	0.0027650889	0.4306151000
-0.1859533600	-0.0009999500	-0.0239955890	0.0027663757	0.4323003600
-0.1863849000	-0.0009999500	-0.0238480360	0.0027973868	0.4336198600
-0.1886420700	-0.0009999500	-0.0230548250	0.0027075819	0.4408049600
-0.1937594300	-0.0009999500	-0.0212576650	0.0026188423	0.4564772000
-0.1987159800	-0.0009999500	-0.0193985290	0.0026960176	0.4791390300
-0.1990911200	-0.0009999500	-0.0192580610	0.0026610544	0.4811989400
-0.1995916800	-0.0009999500	-0.0190606360	0.0026978961	0.4841528800
-0.2032665900	-0.0009999500	-0.0176058670	0.0026189147	0.5077936100
-0.2053007300	-0.0009999500	-0.0167635960	0.0026171873	0.5211292500
-0.2091429400	-0.0009999500	-0.0151160220	0.0025244067	0.5442391000
-0.2126827500	-0.0009999500	-0.0135403440	0.0024383348	0.5650008900
-0.2165538200	-0.0009999500	-0.0117068470	0.0024210859	0.5958672200
-0.2179562700	-0.0009999500	-0.0110151670	0.0024706424	0.6077842100
-0.2220094500	-0.0009999500	-0.0089167133	0.0025033704	0.6455143700
-0.2224284300	-0.0009999500	-0.0086952485	0.0024875893	0.6498534100
-0.2228755400	-0.0009999500	-0.0084449677	0.0024475171	0.6550561800
-0.2274076600	-0.0009999500	-0.0058497437	0.0024234365	0.6967980900
-0.2277026300	-0.0009999500	-0.0056695943	0.0024158158	0.7001881000
-0.2297741200	-0.0009999500	-0.0043809284	0.0020929425	0.7318794100
-0.2318941800	-0.0009999500	-0.0029640214	0.0019313911	0.7614822400
-0.2326895600	-0.0009999500	-0.0024362500	0.0018881255	0.7733613800
-0.2332181000	-0.0009999500	-0.0020658066	0.0017996226	0.7802329100
-0.2344672500	-0.0009999500	-0.0011323576	0.0017020177	0.8020308600
-0.2360113600	-0.0009999500	0.0000064956	0.0015043932	0.8281657100
-0.2375100400	-0.0009999500	0.0012279949	0.0014581088	0.8565917000
-0.2385838500	-0.0009999500	0.0021265729	0.0013434275	0.8760119100
-0.2408708500	-0.0009999500	0.0042474749	0.0009766939	0.9170879100
-0.2416498700	-0.0009999500	0.0050329538	0.0008304822	0.9306618000
-0.2429751600	-0.0009999500	0.0064877053	0.0005608951	0.9503597000
-0.2436625800	-0.0009999500	0.0073716813	0.0004537391	0.9616970400
-0.2447273400	-0.0009999500	0.0086458130	0.0002860308	0.9778516900
-0.2453978200	-0.0009999500	0.0095681222	0.0001674131	0.9861739900
-0.2461381700	-0.0009999500	0.0107244120	0.0000602958	0.9906789100
-0.2463881100	-0.0009999500	0.0111338690	0.0000102616	0.9907673000
-0.2469074000	-0.0009999500	0.0120767360	-0.0000994826	0.9855400900
-0.2472613300	-0.0009999500	0.0127858550	-0.0001664358	0.9769201900
-0.2476473300	-0.0009999500	0.0136275920	-0.0002201583	0.9631081800
-0.2484540900	-0.0009999500	0.0158828940	-0.0003381929	0.9108754400
-0.2484650800	-0.0009999500	0.0159139880	-0.0003392911	0.9100586800
-0.2484813800	-0.0009999500	0.0159831140	-0.0003387683	0.9070543600