TITLE     = "Surface mesh and solution"
VARIABLES = "x"
"y"
"z"
"cfx"
"Cp"
ZONE T="CFD++, PW Y=-0.001"
STRANDID=0, SOLUTIONTIME=0
Nodes=801, Elements=800, ZONETYPE=FELineSeg
DATAPACKING=POINT
DT=(DOUBLE DOUBLE DOUBLE DOUBLE DOUBLE )
0.4499956400	-0.0009999500	-0.0425035800	0.0007207459	0.2116136400
0.4537916200	-0.0009999500	-0.0435688420	0.0007061848	0.2148182400
0.4575815500	-0.0009999500	-0.0446347220	0.0007038559	0.2187498200
0.4613662100	-0.0009999500	-0.0457014370	0.0006965991	0.2215408200
0.4651455900	-0.0009999500	-0.0467689520	0.0006812118	0.2246589400
0.4689187700	-0.0009999500	-0.0478370120	0.0006721170	0.2282544800
0.4726840300	-0.0009999500	-0.0489050820	0.0006634414	0.2312737700
0.4764390300	-0.0009999500	-0.0499725080	0.0006523623	0.2343900500
0.4801817200	-0.0009999500	-0.0510386640	0.0006444559	0.2376583500
0.4839105000	-0.0009999500	-0.0521030650	0.0006403076	0.2410015900
0.4876246200	-0.0009999500	-0.0531654770	0.0006308942	0.2437962900
0.4913243700	-0.0009999500	-0.0542259510	0.0006193608	0.2469759000
0.4950112700	-0.0009999500	-0.0552848910	0.0006101450	0.2502186600
0.4986875400	-0.0009999500	-0.0563429220	0.0005995358	0.2532599000
0.5023559300	-0.0009999500	-0.0574008080	0.0005898791	0.2562731800
0.5060192900	-0.0009999500	-0.0584593600	0.0005818661	0.2592595800
0.5096805100	-0.0009999500	-0.0595194060	0.0005734511	0.2624895900
0.5133420200	-0.0009999500	-0.0605816510	0.0005634790	0.2655559800
0.5170053800	-0.0009999500	-0.0616465510	0.0005587846	0.2685924200
0.5206704100	-0.0009999500	-0.0627140480	0.0005513988	0.2715809900
0.5243342500	-0.0009999500	-0.0637833250	0.0005381122	0.2746798100
0.5279918300	-0.0009999500	-0.0648528640	0.0005296678	0.2778380800
0.5316358800	-0.0009999500	-0.0659205690	0.0005238965	0.2808015900
0.5352581100	-0.0009999500	-0.0669839530	0.0005156599	0.2837497900
0.5388497700	-0.0009999500	-0.0680404160	0.0005042317	0.2866920500
0.5424031000	-0.0009999500	-0.0690876020	0.0004914896	0.2894715400
0.5459127400	-0.0009999500	-0.0701238810	0.0004832128	0.2926527300
0.5493766700	-0.0009999500	-0.0711485890	0.0004772192	0.2955124700
0.5527968400	-0.0009999500	-0.0721622180	0.0004670080	0.2982105600
0.5561774400	-0.0009999500	-0.0731659610	0.0004580942	0.3010643100
0.5595237600	-0.0009999500	-0.0741613130	0.0004513455	0.3039324900
0.5628411800	-0.0009999500	-0.0751498270	0.0004417893	0.3066450100
0.5661343900	-0.0009999500	-0.0761328940	0.0004308045	0.3091855900
0.5694072200	-0.0009999500	-0.0771115940	0.0004211920	0.3119981600
0.5726624700	-0.0009999500	-0.0780867490	0.0004121450	0.3147131500
0.5759025200	-0.0009999500	-0.0790590570	0.0004039457	0.3175063700
0.5791292200	-0.0009999500	-0.0800290410	0.0003961840	0.3200540500
0.5823439400	-0.0009999500	-0.0809971090	0.0003840072	0.3224411300
0.5855481600	-0.0009999500	-0.0819636880	0.0003754100	0.3256942600
0.5887432100	-0.0009999500	-0.0829291720	0.0003753431	0.3284195100
0.5919301500	-0.0009999500	-0.0838938730	0.0003632311	0.3302286900
0.5951096400	-0.0009999500	-0.0848579930	0.0003530779	0.3335515300
0.5982818600	-0.0009999500	-0.0858215620	0.0003569096	0.3364587700
0.6014460900	-0.0009999500	-0.0867843630	0.0003420078	0.3382748700
0.6045997700	-0.0009999500	-0.0877456290	0.0003315671	0.3416214900
0.6077387300	-0.0009999500	-0.0887040350	0.0003333947	0.3442206700
0.6108565300	-0.0009999500	-0.0896576340	0.0003188040	0.3465890900
0.6139442900	-0.0009999500	-0.0906036350	0.0003062425	0.3496356000
0.6169918800	-0.0009999500	-0.0915389280	0.0002972381	0.3520129000
0.6199873700	-0.0009999500	-0.0924597530	0.0002840114	0.3545234500
0.6229181900	-0.0009999500	-0.0933621900	0.0002720117	0.3569794000
0.6257718200	-0.0009999500	-0.0942422520	0.0002602065	0.3593758000
0.6285348500	-0.0009999500	-0.0950957240	0.0002482464	0.3616930500
0.6311975100	-0.0009999500	-0.0959194230	0.0002359671	0.3639291800
0.6337528200	-0.0009999500	-0.0967110840	0.0002235004	0.3660836200
0.6348221300	-0.0009999500	-0.0970428360	0.0002177699	0.3669799900
0.6362116300	-0.0009999500	-0.0974739120	0.0002125408	0.3681483600
0.6386022600	-0.0009999500	-0.0982166010	0.0002021104	0.3701635900
0.6409875200	-0.0009999500	-0.0989586190	0.0001899654	0.3721646700
0.6433585300	-0.0009999500	-0.0996971950	0.0001766271	0.3741753100
0.6457095100	-0.0009999500	-0.1004305000	0.0001639342	0.3762111700
0.6480308200	-0.0009999500	-0.1011555300	0.0001536924	0.3782457700
0.6503128400	-0.0009999500	-0.1018692000	0.0001462779	0.3802451200
0.6525441400	-0.0009999500	-0.1025679200	0.0001408655	0.3821799200
0.6547142300	-0.0009999500	-0.1032483300	0.0001364011	0.3840527800
0.6568159500	-0.0009999500	-0.1039081000	0.0001329257	0.3858937000
0.6588447100	-0.0009999500	-0.1045457300	0.0001307292	0.3876759100
0.6607992600	-0.0009999500	-0.1051607400	0.0001290998	0.3893717800
0.6626817000	-0.0009999500	-0.1057537100	0.0001283186	0.3910049200
0.6644957700	-0.0009999500	-0.1063257700	0.0001269118	0.3924895200
0.6662462400	-0.0009999500	-0.1068783500	0.0001235266	0.3939834800
0.6679382300	-0.0009999500	-0.1074129900	0.0001214744	0.3955281100
0.6695765300	-0.0009999500	-0.1079311600	0.0001165590	0.3967120100
0.6711657000	-0.0009999500	-0.1084342900	0.0001097651	0.3980464000
0.6727099400	-0.0009999500	-0.1089236200	0.0001074194	0.3993938600
0.6742121600	-0.0009999500	-0.1094000700	0.0001018224	0.4004490400
0.6756752700	-0.0009999500	-0.1098645100	0.0000965965	0.4017644500
0.6771020300	-0.0009999500	-0.1103178100	0.0000934839	0.4028490200
0.6784950500	-0.0009999500	-0.1107607600	0.0000876703	0.4040081200
0.6798570800	-0.0009999500	-0.1111941900	0.0000861554	0.4052219700
0.6811909100	-0.0009999500	-0.1116190000	0.0000819404	0.4060537500
0.6824993500	-0.0009999500	-0.1120360500	0.0000740516	0.4071697000
0.6837853200	-0.0009999500	-0.1124462600	0.0000732987	0.4083698100
0.6850512600	-0.0009999500	-0.1128503700	0.0000723821	0.4092838800
0.6862995600	-0.0009999500	-0.1132491500	0.0000661292	0.4102432100
0.6875324200	-0.0009999500	-0.1136433000	0.0000610448	0.4112915100
0.6887515800	-0.0009999500	-0.1140333600	0.0000576262	0.4122674500
0.6899591100	-0.0009999500	-0.1144199700	0.0000527875	0.4132280900
0.6911567400	-0.0009999500	-0.1148036800	0.0000502982	0.4142832800
0.6923457400	-0.0009999500	-0.1151849000	0.0000477820	0.4150918700
0.6935271000	-0.0009999500	-0.1155639500	0.0000404275	0.4159836500
0.6947015500	-0.0009999500	-0.1159410600	0.0000390482	0.4171581300
0.6958693300	-0.0009999500	-0.1163162700	0.0000400513	0.4179562000
0.6970300100	-0.0009999500	-0.1166894800	0.0000327288	0.4188240800
0.6981830600	-0.0009999500	-0.1170604900	0.0000271920	0.4198947500
0.6993278900	-0.0009999500	-0.1174291100	0.0000265918	0.4207958600
0.7004639500	-0.0009999500	-0.1177951800	0.0000221391	0.4215454800
0.7015910100	-0.0009999500	-0.1181585600	0.0000159044	0.4224689000
0.7027089600	-0.0009999500	-0.1185192900	0.0000124751	0.4234172100
0.7038182600	-0.0009999500	-0.1188774600	0.0000145651	0.4244061400
0.7049194000	-0.0009999500	-0.1192332300	0.0000164634	0.4251545100
0.7060130200	-0.0009999500	-0.1195868100	0.0000074222	0.4257938000
0.7070996800	-0.0009999500	-0.1199383700	-0.0000008770	0.4267511400
0.7081795300	-0.0009999500	-0.1202879500	-0.0000042342	0.4275877500
0.7092524800	-0.0009999500	-0.1206355500	-0.0000071322	0.4285372500
0.7103182700	-0.0009999500	-0.1209810600	-0.0000059786	0.4293972600
0.7113764900	-0.0009999500	-0.1213243200	-0.0000094583	0.4299992900
0.7124262500	-0.0009999500	-0.1216650800	-0.0000186404	0.4307968600
0.7134666400	-0.0009999500	-0.1220030200	-0.0000222202	0.4317317900
0.7144969700	-0.0009999500	-0.1223379000	-0.0000228321	0.4324820300
0.7155163900	-0.0009999500	-0.1226694200	-0.0000271357	0.4332104600
0.7165238900	-0.0009999500	-0.1229973100	-0.0000316407	0.4340069300
0.7175189300	-0.0009999500	-0.1233213200	-0.0000345333	0.4347592900
0.7185011500	-0.0009999500	-0.1236413600	-0.0000326339	0.4355501800
0.7194696100	-0.0009999500	-0.1239571200	-0.0000334768	0.4360512500
0.7204224500	-0.0009999500	-0.1242679700	-0.0000389005	0.4368706600
0.7213571100	-0.0009999500	-0.1245730600	-0.0000399988	0.4376551800
0.7222704300	-0.0009999500	-0.1248713700	-0.0000459439	0.4382019600
0.7231594900	-0.0009999500	-0.1251619000	-0.0000505129	0.4389241300
0.7240212000	-0.0009999500	-0.1254436700	-0.0000527601	0.4393963800
0.7248526800	-0.0009999500	-0.1257157000	-0.0000602970	0.4399820300
0.7256515600	-0.0009999500	-0.1259772000	-0.0000584938	0.4407137300
0.7264158100	-0.0009999500	-0.1262274800	-0.0000531271	0.4411748900
0.7271443000	-0.0009999500	-0.1264661700	-0.0000598397	0.4415709400
0.7278364300	-0.0009999500	-0.1266930600	-0.0000663964	0.4421653200
0.7284917200	-0.0009999500	-0.1269079300	-0.0000616967	0.4427352800
0.7291098200	-0.0009999500	-0.1271107200	-0.0000538421	0.4431406900
0.7296594400	-0.0009999500	-0.1272910800	-0.0000529212	0.4434894300
0.7297838300	-0.0009999500	-0.1273319400	-0.0000532163	0.4436021400
0.7305255500	-0.0009999500	-0.1275754900	-0.0000609788	0.4440947800
0.7306710500	-0.0009999500	-0.1276232700	-0.0000614800	0.4442215900
0.7312150000	-0.0009999500	-0.1278019500	-0.0000664371	0.4445099200
0.7316799200	-0.0009999500	-0.1279547400	-0.0000697189	0.4448099100
0.7319601800	-0.0009999500	-0.1280468600	-0.0000716706	0.4449684000
0.7320954200	-0.0009999500	-0.1280913400	-0.0000724333	0.4450419800
0.7324832100	-0.0009999500	-0.1282188100	-0.0000712301	0.4453907600
0.7328652700	-0.0009999500	-0.1283444600	-0.0000670229	0.4455665100
0.7332300500	-0.0009999500	-0.1284644600	-0.0000722868	0.4456989800
0.7335699800	-0.0009999500	-0.1285762900	-0.0000746708	0.4459646900
0.7339007900	-0.0009999500	-0.1286851800	-0.0000781053	0.4461481300
0.7342157400	-0.0009999500	-0.1287888400	-0.0000745998	0.4466086300
0.7342646100	-0.0009999500	-0.1288049400	-0.0000729901	0.4466384100
0.7344890200	-0.0009999500	-0.1288788000	-0.0000664381	0.4467628300
0.7346848800	-0.0009999500	-0.1289433100	-0.0000708541	0.4467772800
0.7350268400	-0.0009999500	-0.1290559200	-0.0000788726	0.4470837700
0.7351771000	-0.0009999500	-0.1291054200	-0.0000786971	0.4471678400
0.7355080800	-0.0009999500	-0.1292144700	-0.0000786562	0.4474276600
0.7355505800	-0.0009999500	-0.1292284600	-0.0000786853	0.4474592200
0.7357990100	-0.0009999500	-0.1293103400	-0.0000775842	0.4475993800
0.7359486800	-0.0009999500	-0.1293596600	-0.0000770394	0.4476847900
0.7362725100	-0.0009999500	-0.1294663800	-0.0000738812	0.4479816600
0.7365806700	-0.0009999500	-0.1295680000	-0.0000695309	0.4482425200
0.7368779200	-0.0009999500	-0.1296660200	-0.0000624676	0.4484836800
0.7369426500	-0.0009999500	-0.1296873700	-0.0000610732	0.4485219700
0.7373452200	-0.0009999500	-0.1298201400	-0.0000523698	0.4487716000
0.7375089500	-0.0009999500	-0.1298741700	-0.0000475997	0.4488686600
0.7377232300	-0.0009999500	-0.1299448800	-0.0000383047	0.4489733600
0.7378612200	-0.0009999500	-0.1299904000	-0.0000304278	0.4490431000
0.7380960600	-0.0009999500	-0.1300678800	0.0000144395	0.4492075100
0.7382601500	-0.0009999500	-0.1301220500	0.0001180214	0.4492364800
0.7383968800	-0.0009999500	-0.1301671700	0.0003373716	0.4495573600
0.7385108500	-0.0009999500	-0.1302048000	0.0007357014	0.4466663900
0.7386058000	-0.0009999500	-0.1302361300	0.0011770940	0.4449880100
0.7385058400	-0.0009999500	-0.1302331100	0.0011384557	0.4482336600
0.7383859200	-0.0009999500	-0.1302294700	0.0008190733	0.4501726600
0.7382419700	-0.0009999500	-0.1302251200	0.0006656159	0.4498593800
0.7380692400	-0.0009999500	-0.1302198900	0.0006016180	0.4489306200
0.7378253300	-0.0009999500	-0.1302124900	0.0006269950	0.4484736900
0.7376678000	-0.0009999500	-0.1302077000	0.0006277845	0.4484267200
0.7374622200	-0.0009999500	-0.1302014600	0.0006331744	0.4483556200
0.7372488400	-0.0009999500	-0.1301949600	0.0006396530	0.4482989000
0.7368862600	-0.0009999500	-0.1301839200	0.0006269383	0.4478041800
0.7368325600	-0.0009999500	-0.1301823000	0.0006290001	0.4477272300
0.7364480500	-0.0009999500	-0.1301705500	0.0006168189	0.4474588600
0.7360671800	-0.0009999500	-0.1301588900	0.0006113982	0.4472149300
0.7360194900	-0.0009999500	-0.1301574300	0.0006146503	0.4471500800
0.7356723500	-0.0009999500	-0.1301467700	0.0006489875	0.4465641400
0.7356247300	-0.0009999500	-0.1301453100	0.0006506782	0.4465873500
0.7352299100	-0.0009999500	-0.1301331500	0.0006594544	0.4460924600
0.7351497400	-0.0009999500	-0.1301306800	0.0006615608	0.4462453100
0.7350366100	-0.0009999500	-0.1301271900	0.0006601079	0.4459068200
0.7346435800	-0.0009999500	-0.1301150500	0.0006664980	0.4451423300
0.7343503200	-0.0009999500	-0.1301059700	0.0006687875	0.4453791100
0.7340517600	-0.0009999500	-0.1300967000	0.0006604173	0.4446401300
0.7340040200	-0.0009999500	-0.1300952100	0.0006635056	0.4445857100
0.7337848500	-0.0009999500	-0.1300884000	0.0006753986	0.4443521200
0.7334529800	-0.0009999500	-0.1300780800	0.0006822919	0.4441279500
0.7331337300	-0.0009999500	-0.1300681200	0.0006697231	0.4442076100
0.7327501800	-0.0009999500	-0.1300561400	0.0006573061	0.4432622500
0.7323559500	-0.0009999500	-0.1300437900	0.0007070592	0.4421899900
0.7319396100	-0.0009999500	-0.1300307400	0.0007234217	0.4434830200
0.7315496800	-0.0009999500	-0.1300184600	0.0006795638	0.4425750700
0.7314900200	-0.0009999500	-0.1300165800	0.0006725902	0.4424292100
0.7309969700	-0.0009999500	-0.1300010200	0.0006713732	0.4407341200
0.7304073600	-0.0009999500	-0.1299823700	0.0006897994	0.4405928000
0.7302631700	-0.0009999500	-0.1299777900	0.0006925562	0.4403317000
0.7294876600	-0.0009999500	-0.1299531600	0.0007024769	0.4398847200
0.7293630200	-0.0009999500	-0.1299491800	0.0006970278	0.4398275900
0.7287881400	-0.0009999500	-0.1299308200	0.0006986230	0.4389673800
0.7281484000	-0.0009999500	-0.1299103300	0.0006912306	0.4386633900
0.7274722500	-0.0009999500	-0.1298885900	0.0006895175	0.4371602500
0.7267608000	-0.0009999500	-0.1298656300	0.0007216690	0.4367069000
0.7260150900	-0.0009999500	-0.1298414600	0.0007148228	0.4370582400
0.7252370100	-0.0009999500	-0.1298161300	0.0006982408	0.4354564500
0.7244291900	-0.0009999500	-0.1297897100	0.0007124582	0.4345509100
0.7235943100	-0.0009999500	-0.1297622900	0.0007175774	0.4339065600
0.7227342700	-0.0009999500	-0.1297339200	0.0007269076	0.4332451200
0.7218509900	-0.0009999500	-0.1297046400	0.0007296436	0.4328412100
0.7209460100	-0.0009999500	-0.1296745100	0.0007303074	0.4317059500
0.7200210700	-0.0009999500	-0.1296435400	0.0007436373	0.4309182200
0.7190773500	-0.0009999500	-0.1296118100	0.0007538451	0.4302363100
0.7181161000	-0.0009999500	-0.1295793200	0.0007584890	0.4295584300
0.7171381100	-0.0009999500	-0.1295460900	0.0007583014	0.4287300400
0.7161440300	-0.0009999500	-0.1295121600	0.0007620164	0.4278335000
0.7151340800	-0.0009999500	-0.1294775000	0.0007656304	0.4272017200
0.7141087100	-0.0009999500	-0.1294421300	0.0007749759	0.4263354200
0.7130687200	-0.0009999500	-0.1294060600	0.0007906822	0.4258641600
0.7120148500	-0.0009999500	-0.1293693200	0.0007964140	0.4251101000
0.7109478700	-0.0009999500	-0.1293319300	0.0007954049	0.4243405500
0.7098685500	-0.0009999500	-0.1292939000	0.0008023762	0.4230573800
0.7087777300	-0.0009999500	-0.1292552600	0.0008191203	0.4226948900
0.7076758700	-0.0009999500	-0.1292160300	0.0008112182	0.4224979300
0.7065632900	-0.0009999500	-0.1291762000	0.0008063373	0.4209082100
0.7054401600	-0.0009999500	-0.1291357700	0.0008199050	0.4205072500
0.7043063600	-0.0009999500	-0.1290947500	0.0008269330	0.4197511400
0.7031619000	-0.0009999500	-0.1290531200	0.0008337797	0.4191585800
0.7020064000	-0.0009999500	-0.1290108400	0.0008300691	0.4185510600
0.7008398800	-0.0009999500	-0.1289679400	0.0008381899	0.4173496400
0.6996625100	-0.0009999500	-0.1289244100	0.0008562256	0.4171782100
0.6984746500	-0.0009999500	-0.1288802500	0.0008499281	0.4166280600
0.6972770700	-0.0009999500	-0.1288354800	0.0008441567	0.4154312900
0.6960707300	-0.0009999500	-0.1287901400	0.0008599851	0.4145619900
0.6948561700	-0.0009999500	-0.1287442400	0.0008771235	0.4144570800
0.6936338500	-0.0009999500	-0.1286978100	0.0008721560	0.4141257100
0.6924040900	-0.0009999500	-0.1286508300	0.0008737091	0.4125580500
0.6911664600	-0.0009999500	-0.1286032900	0.0008919344	0.4123215100
0.6899207200	-0.0009999500	-0.1285551900	0.0008858367	0.4119570900
0.6886661600	-0.0009999500	-0.1285064800	0.0008802319	0.4106616400
0.6874025500	-0.0009999500	-0.1284571600	0.0008894217	0.4102902100
0.6861298700	-0.0009999500	-0.1284072100	0.0008951315	0.4098314300
0.6848483100	-0.0009999500	-0.1283566400	0.0008982386	0.4091795700
0.6835582900	-0.0009999500	-0.1283054600	0.0008958818	0.4085197200
0.6822596800	-0.0009999500	-0.1282536700	0.0008991941	0.4075344500
0.6809516000	-0.0009999500	-0.1282012200	0.0009124859	0.4073216300
0.6796321900	-0.0009999500	-0.1281480300	0.0009065507	0.4070625900
0.6782990700	-0.0009999500	-0.1280939900	0.0009056187	0.4054430700
0.6769483700	-0.0009999500	-0.1280389400	0.0009244707	0.4054305000
0.6755759100	-0.0009999500	-0.1279827100	0.0009170107	0.4052458100
0.6741763400	-0.0009999500	-0.1279250400	0.0009105644	0.4037115900
0.6727439200	-0.0009999500	-0.1278657000	0.0009242405	0.4033333400
0.6712731700	-0.0009999500	-0.1278044100	0.0009304830	0.4031036800
0.6697583800	-0.0009999500	-0.1277409300	0.0009277811	0.4023176400
0.6681950700	-0.0009999500	-0.1276750300	0.0009278714	0.4013500200
0.6665785300	-0.0009999500	-0.1276064700	0.0009343515	0.4008149500
0.6649046500	-0.0009999500	-0.1275350200	0.0009341604	0.4002052200
0.6631695600	-0.0009999500	-0.1274604900	0.0009334737	0.3994007400
0.6613691400	-0.0009999500	-0.1273826500	0.0009367265	0.3987225000
0.6594982100	-0.0009999500	-0.1273012200	0.0009405719	0.3978703000
0.6575500400	-0.0009999500	-0.1272158300	0.0009456979	0.3972002900
0.6555149000	-0.0009999500	-0.1271259900	0.0009500551	0.3963899300
0.6533793800	-0.0009999500	-0.1270310100	0.0009565415	0.3955702200
0.6511265600	-0.0009999500	-0.1269300400	0.0009641532	0.3947218700
0.6487352300	-0.0009999500	-0.1268219900	0.0009732941	0.3938215700
0.6461775900	-0.0009999500	-0.1267054400	0.0009842185	0.3928846400
0.6434165200	-0.0009999500	-0.1265784800	0.0009965462	0.3919088200
0.6404108400	-0.0009999500	-0.1264389200	0.0010105314	0.3908642200
0.6371570200	-0.0009999500	-0.1262862500	0.0010262111	0.3897889000
0.6336818900	-0.0009999500	-0.1261214300	0.0010414098	0.3887421800
0.6301803000	-0.0009999500	-0.1259534700	0.0010545148	0.3876943900
0.6282291400	-0.0009999500	-0.1258588400	0.0010610186	0.3871085900
0.6267275800	-0.0009999500	-0.1257860200	0.0010695455	0.3866576300
0.6233333300	-0.0009999500	-0.1256196600	0.0010862169	0.3856722100
0.6199984000	-0.0009999500	-0.1254545000	0.0011001624	0.3847123100
0.6167125700	-0.0009999500	-0.1252901400	0.0011124988	0.3837854900
0.6134655500	-0.0009999500	-0.1251261400	0.0011224195	0.3829510500
0.6102471900	-0.0009999500	-0.1249620300	0.0011325716	0.3819912700
0.6070470800	-0.0009999500	-0.1247973300	0.0011432631	0.3812439400
0.6038561500	-0.0009999500	-0.1246315800	0.0011452787	0.3808186900
0.6006669400	-0.0009999500	-0.1244644300	0.0011522378	0.3789869800
0.5974738000	-0.0009999500	-0.1242955700	0.0011585544	0.3788710500
0.5942723800	-0.0009999500	-0.1241247700	0.0011568258	0.3782731000
0.5910595100	-0.0009999500	-0.1239518600	0.0011671174	0.3767025800
0.5878332900	-0.0009999500	-0.1237767200	0.0011729206	0.3763645000
0.5845925800	-0.0009999500	-0.1235992600	0.0011743765	0.3755401100
0.5813369800	-0.0009999500	-0.1234194600	0.0011812709	0.3748374600
0.5780662900	-0.0009999500	-0.1232372800	0.0011912726	0.3743372600
0.5747798700	-0.0009999500	-0.1230526800	0.0011977286	0.3737075000
0.5714768800	-0.0009999500	-0.1228655800	0.0012003580	0.3727873900
0.5681557700	-0.0009999500	-0.1226758800	0.0012059216	0.3720511800
0.5648149300	-0.0009999500	-0.1224834600	0.0012136524	0.3713935900
0.5614522700	-0.0009999500	-0.1222881700	0.0012189660	0.3711366700
0.5580653000	-0.0009999500	-0.1220898500	0.0012216749	0.3700181500
0.5546517400	-0.0009999500	-0.1218883200	0.0012318647	0.3696270900
0.5512085000	-0.0009999500	-0.1216833600	0.0012374687	0.3689102500
0.5477318800	-0.0009999500	-0.1214747100	0.0012440479	0.3681250800
0.5442183600	-0.0009999500	-0.1212621100	0.0012473111	0.3680620500
0.5406649700	-0.0009999500	-0.1210453300	0.0012442419	0.3669406200
0.5370702700	-0.0009999500	-0.1208242000	0.0012520046	0.3660704200
0.5334348700	-0.0009999500	-0.1205987300	0.0012616923	0.3660862700
0.5297618500	-0.0009999500	-0.1203690400	0.0012626630	0.3654848300
0.5260564100	-0.0009999500	-0.1201354000	0.0012615029	0.3645037400
0.5223252200	-0.0009999500	-0.1198981800	0.0012687497	0.3640970900
0.5185758500	-0.0009999500	-0.1196578400	0.0012760831	0.3637997800
0.5148158100	-0.0009999500	-0.1194148300	0.0012817842	0.3629479400
0.5110511800	-0.0009999500	-0.1191695300	0.0012909137	0.3624616900
0.5072853600	-0.0009999500	-0.1189221700	0.0012941926	0.3622367700
0.5035179900	-0.0009999500	-0.1186727100	0.0012968548	0.3614880100
0.4997461400	-0.0009999500	-0.1184209700	0.0013063539	0.3609523500
0.4959656900	-0.0009999500	-0.1181666400	0.0013134201	0.3607700200
0.4921719700	-0.0009999500	-0.1179093900	0.0013175819	0.3601532600
0.4883604900	-0.0009999500	-0.1176489100	0.0013252493	0.3596720100
0.4845266900	-0.0009999500	-0.1173848200	0.0013265989	0.3593526500
0.4806662500	-0.0009999500	-0.1171168100	0.0013307218	0.3587020900
0.4767751400	-0.0009999500	-0.1168445300	0.0013413412	0.3585144000
0.4728501700	-0.0009999500	-0.1165677100	0.0013418401	0.3581543600
0.4688891500	-0.0009999500	-0.1162861400	0.0013444226	0.3576479000
0.4648914900	-0.0009999500	-0.1159996800	0.0013543322	0.3573384600
0.4608586100	-0.0009999500	-0.1157084000	0.0013599501	0.3570749200
0.4567951900	-0.0009999500	-0.1154125600	0.0013634846	0.3565060500
0.4527088700	-0.0009999500	-0.1151126600	0.0013745539	0.3563484300
0.4486092900	-0.0009999500	-0.1148093700	0.0013804127	0.3562506100
0.4445072700	-0.0009999500	-0.1145034700	0.0013860032	0.3553369900
0.4404146400	-0.0009999500	-0.1141958400	0.0013953070	0.3553558000
0.4363409900	-0.0009999500	-0.1138872100	0.0013913665	0.3554882100
0.4322916600	-0.0009999500	-0.1135780200	0.0013898575	0.3545967600
0.4282692100	-0.0009999500	-0.1132685000	0.0013996354	0.3544621200
0.4242734600	-0.0009999500	-0.1129586700	0.0014024318	0.3545346900
0.4203021500	-0.0009999500	-0.1126483900	0.0014095844	0.3541458800
0.4163518200	-0.0009999500	-0.1123374100	0.0014234891	0.3540606800
0.4124179500	-0.0009999500	-0.1120254200	0.0014217708	0.3539169400
0.4084954900	-0.0009999500	-0.1117120100	0.0014227990	0.3535108300
0.4045792200	-0.0009999500	-0.1113967700	0.0014322947	0.3536041400
0.4006639100	-0.0009999500	-0.1110792800	0.0014379126	0.3535612500
0.3967454100	-0.0009999500	-0.1107591700	0.0014454328	0.3533476900
0.3928215800	-0.0009999500	-0.1104362500	0.0014527903	0.3529848800
0.3888920200	-0.0009999500	-0.1101104800	0.0014625988	0.3533682800
0.3849579100	-0.0009999500	-0.1097819300	0.0014643494	0.3531725700
0.3810216200	-0.0009999500	-0.1094507600	0.0014710080	0.3528233200
0.3770861300	-0.0009999500	-0.1091172000	0.0014814097	0.3533329400
0.3731544600	-0.0009999500	-0.1087815200	0.0014815454	0.3527264300
0.3692286300	-0.0009999500	-0.1084438500	0.0014877491	0.3528738900
0.3653091500	-0.0009999500	-0.1081042500	0.0014873635	0.3529793300
0.3613947000	-0.0009999500	-0.1077625900	0.0014912496	0.3528897200
0.3574820800	-0.0009999500	-0.1074185800	0.0015022155	0.3532216800
0.3535659900	-0.0009999500	-0.1070717300	0.0015085680	0.3529787400
0.3496397400	-0.0009999500	-0.1067214300	0.0015089483	0.3528229600
0.3456957000	-0.0009999500	-0.1063669400	0.0015118196	0.3532383700
0.3417265100	-0.0009999500	-0.1060075200	0.0015175277	0.3534179000
0.3377264700	-0.0009999500	-0.1056425900	0.0015193575	0.3533447100
0.3336919500	-0.0009999500	-0.1052717100	0.0015220895	0.3534037800
0.3296212000	-0.0009999500	-0.1048946500	0.0015310047	0.3536223800
0.3255145500	-0.0009999500	-0.1045113100	0.0015401075	0.3539964600
0.3213746000	-0.0009999500	-0.1041218400	0.0015402055	0.3539205200
0.3172055500	-0.0009999500	-0.1037265400	0.0015440114	0.3541917800
0.3130135800	-0.0009999500	-0.1033259000	0.0015533123	0.3542743000
0.3088070200	-0.0009999500	-0.1029206400	0.0015630617	0.3546254600
0.3045953500	-0.0009999500	-0.1025116200	0.0015669206	0.3550745800
0.3003892900	-0.0009999500	-0.1020998400	0.0015712587	0.3551722800
0.2961989300	-0.0009999500	-0.1016862900	0.0015771473	0.3553139600
0.2920317100	-0.0009999500	-0.1012717100	0.0015890958	0.3556193100
0.2878922800	-0.0009999500	-0.1008565900	0.0015983403	0.3562296300
0.2837816800	-0.0009999500	-0.1004410500	0.0015958081	0.3564896000
0.2796970300	-0.0009999500	-0.1000248500	0.0015965464	0.3567009600
0.2756325600	-0.0009999500	-0.0996074010	0.0016023305	0.3567826700
0.2715801000	-0.0009999500	-0.0991878730	0.0016140757	0.3576236700
0.2675312200	-0.0009999500	-0.0987653730	0.0016169167	0.3581103100
0.2634786100	-0.0009999500	-0.0983391110	0.0016195918	0.3579661500
0.2594162800	-0.0009999500	-0.0979083930	0.0016287580	0.3587571700
0.2553402200	-0.0009999500	-0.0974727270	0.0016306147	0.3592350500
0.2512495800	-0.0009999500	-0.0970319360	0.0016339976	0.3595401000
0.2471468200	-0.0009999500	-0.0965862050	0.0016426140	0.3600398600
0.2430381800	-0.0009999500	-0.0961361530	0.0016518210	0.3608129900
0.2389332700	-0.0009999500	-0.0956827700	0.0016540102	0.3608992100
0.2348429600	-0.0009999500	-0.0952272490	0.0016646916	0.3616370900
0.2307793200	-0.0009999500	-0.0947709460	0.0016735136	0.3627016800
0.2267534700	-0.0009999500	-0.0943151410	0.0016688588	0.3625344900
0.2227727300	-0.0009999500	-0.0938607380	0.0016792222	0.3634721900
0.2188398500	-0.0009999500	-0.0934081300	0.0016883793	0.3640430900
0.2149531400	-0.0009999500	-0.0929571990	0.0016904120	0.3645437400
0.2111098300	-0.0009999500	-0.0925077200	0.0016916422	0.3651870200
0.2073101700	-0.0009999500	-0.0920597910	0.0016970096	0.3658185900
0.2035464600	-0.0009999500	-0.0916125770	0.0017056643	0.3667319400
0.1998027400	-0.0009999500	-0.0911642160	0.0017094587	0.3671456900
0.1960593600	-0.0009999500	-0.0907123390	0.0017180171	0.3677140200
0.1922977300	-0.0009999500	-0.0902546270	0.0017268701	0.3685716400
0.1885021200	-0.0009999500	-0.0897890480	0.0017286264	0.3693085600
0.1846619400	-0.0009999500	-0.0893141330	0.0017323280	0.3700882800
0.1807707800	-0.0009999500	-0.0888288920	0.0017421390	0.3705278000
0.1768258200	-0.0009999500	-0.0883327500	0.0017578922	0.3718234000
0.1728277100	-0.0009999500	-0.0878255670	0.0017590206	0.3727313600
0.1687802100	-0.0009999500	-0.0873075870	0.0017525539	0.3725991000
0.1646899000	-0.0009999500	-0.0867794380	0.0017618362	0.3744721400
0.1605649300	-0.0009999500	-0.0862419610	0.0017570805	0.3750726000
0.1564128400	-0.0009999500	-0.0856959450	0.0017582352	0.3758733600
0.1522397800	-0.0009999500	-0.0851420460	0.0017653394	0.3772119000
0.1480500300	-0.0009999500	-0.0845806750	0.0017641096	0.3780731000
0.1438454100	-0.0009999500	-0.0840119500	0.0017641318	0.3791283100
0.1396265000	-0.0009999500	-0.0834358040	0.0017736548	0.3802363000
0.1353936200	-0.0009999500	-0.0828521400	0.0017827697	0.3814955100
0.1311475500	-0.0009999500	-0.0822609290	0.0017829689	0.3821822400
0.1268902600	-0.0009999500	-0.0816622820	0.0017957617	0.3836689900
0.1226248200	-0.0009999500	-0.0810565050	0.0017991744	0.3851673600
0.1183560400	-0.0009999500	-0.0804441650	0.0017910583	0.3860611600
0.1140898200	-0.0009999500	-0.0798259900	0.0017964945	0.3872952500
0.1098332700	-0.0009999500	-0.0792029500	0.0018060727	0.3887863800
0.1055943800	-0.0009999500	-0.0785761770	0.0018084773	0.3898826200
0.1013810200	-0.0009999500	-0.0779468120	0.0018176005	0.3915315000
0.0972009380	-0.0009999500	-0.0773160460	0.0018238844	0.3930235500
0.0930603070	-0.0009999500	-0.0766848620	0.0018233668	0.3938208800
0.0889638070	-0.0009999500	-0.0760540590	0.0018352668	0.3956006800
0.0849149150	-0.0009999500	-0.0754242840	0.0018373181	0.3973970700
0.0809157040	-0.0009999500	-0.0747959840	0.0018312129	0.3981893400
0.0769672470	-0.0009999500	-0.0741694790	0.0018387581	0.3999086000
0.0730698030	-0.0009999500	-0.0735449270	0.0018416745	0.4016799600
0.0692226890	-0.0009999500	-0.0729223560	0.0018459131	0.4027744800
0.0654239650	-0.0009999500	-0.0723015960	0.0018534684	0.4042205500
0.0616703070	-0.0009999500	-0.0716822150	0.0018551711	0.4059041400
0.0579574480	-0.0009999500	-0.0710636230	0.0018592615	0.4075511400
0.0542806050	-0.0009999500	-0.0704451130	0.0018591133	0.4091225900
0.0506350660	-0.0009999500	-0.0698259770	0.0018526897	0.4105612300
0.0470166800	-0.0009999500	-0.0692055450	0.0018550322	0.4118180000
0.0434223340	-0.0009999500	-0.0685833100	0.0018660620	0.4139188800
0.0398504660	-0.0009999500	-0.0679590260	0.0018672487	0.4157591500
0.0363014300	-0.0009999500	-0.0673327590	0.0018642478	0.4169786900
0.0327776110	-0.0009999500	-0.0667049590	0.0018712791	0.4185721600
0.0292827880	-0.0009999500	-0.0660763380	0.0018745241	0.4206357000
0.0258213600	-0.0009999500	-0.0654477630	0.0018678764	0.4224149000
0.0223977570	-0.0009999500	-0.0648201180	0.0018677033	0.4238732200
0.0190162400	-0.0009999500	-0.0641943070	0.0018731191	0.4257863200
0.0156802180	-0.0009999500	-0.0635710880	0.0018753123	0.4277291900
0.0123918010	-0.0009999500	-0.0629509910	0.0018803137	0.4293139300
0.0091527952	-0.0009999500	-0.0623345340	0.0018836927	0.4309551100
0.0059647067	-0.0009999500	-0.0617221630	0.0018830648	0.4333417400
0.0028284092	-0.0009999500	-0.0611142290	0.0018762908	0.4351842400
-0.0002557847	-0.0009999500	-0.0605109860	0.0018692035	0.4363059100
-0.0032883135	-0.0009999500	-0.0599125360	0.0018683712	0.4383183400
-0.0062706457	-0.0009999500	-0.0593187850	0.0018684287	0.4403778600
-0.0092056515	-0.0009999500	-0.0587293320	0.0018720741	0.4421089000
-0.0120974950	-0.0009999500	-0.0581434930	0.0018721900	0.4440834800
-0.0149523520	-0.0009999500	-0.0575601420	0.0018700994	0.4458892000
-0.0177776400	-0.0009999500	-0.0569778640	0.0018704258	0.4477959600
-0.0205801610	-0.0009999500	-0.0563953180	0.0018704835	0.4497098900
-0.0233665220	-0.0009999500	-0.0558111560	0.0018709896	0.4516602500