TITLE     = "Surface mesh and solution"
VARIABLES = "x"
"y"
"z"
"cfx"
"Cp"
ZONE T="Slice: Y=-0.001"
STRANDID=0, SOLUTIONTIME=0
Nodes=2095, Elements=2094, ZONETYPE=FELineSeg
DATAPACKING=POINT
DT=(DOUBLE DOUBLE DOUBLE DOUBLE DOUBLE )
0.1605732600	-0.0009999500	0.0439338760	0.0019025449	-0.0478871580
0.1624648000	-0.0009999500	0.0436924620	0.0018916340	-0.0461328360
0.1636419300	-0.0009999500	0.0435415840	0.0018858580	-0.0450342860
0.1654790500	-0.0009999500	0.0433054080	0.0018751152	-0.0433579530
0.1667631100	-0.0009999500	0.0431396400	0.0018680226	-0.0421601720
0.1684890100	-0.0009999500	0.0429161600	0.0018574887	-0.0405507460
0.1699180500	-0.0009999500	0.0427303460	0.0018533234	-0.0392409560
0.1715712700	-0.0009999500	0.0425147600	0.0018427948	-0.0377032090
0.1730750100	-0.0009999500	0.0423178300	0.0018340613	-0.0363140070
0.1746342000	-0.0009999500	0.0421130660	0.0018249692	-0.0349261650
0.1762580900	-0.0009999500	0.0418989290	0.0018147358	-0.0334797650
0.1776654000	-0.0009999500	0.0417128320	0.0018066573	-0.0322079250
0.1794679000	-0.0009999500	0.0414735000	0.0018008647	-0.0305771120
0.1807306700	-0.0009999500	0.0413053820	0.0017937094	-0.0294114240
0.1826589900	-0.0009999500	0.0410476250	0.0017901962	-0.0276187730
0.1837046600	-0.0009999500	0.0409074760	0.0017838070	-0.0266696400
0.1858668000	-0.0009999500	0.0406165830	0.0017783892	-0.0247141680
0.1867076200	-0.0009999500	0.0405031440	0.0017734129	-0.0239534320
0.1891248500	-0.0009999500	0.0401758140	0.0017628734	-0.0217818280
0.1897734900	-0.0009999500	0.0400877260	0.0017591333	-0.0211935790
0.1923990200	-0.0009999500	0.0397298710	0.0017487439	-0.0188059250
0.1928813500	-0.0009999500	0.0396639440	0.0017457417	-0.0183682390
0.1957193000	-0.0009999500	0.0392746250	0.0017335056	-0.0157900860
0.1960198400	-0.0009999500	0.0392332780	0.0017318395	-0.0155196340
0.1990900800	-0.0009999500	0.0388093700	0.0017155361	-0.0127946390
0.1991719800	-0.0009999500	0.0387980340	0.0017150794	-0.0127217590
0.2004662300	-0.0009999500	0.0386181960	0.0017087301	-0.0115694440
0.2023482900	-0.0009999500	0.0383567070	0.0016977489	-0.0098945638
0.2024721400	-0.0009999500	0.0383394360	0.0016971184	-0.0097832335
0.2055561500	-0.0009999500	0.0379082340	0.0016794365	-0.0069858497
0.2059026500	-0.0009999500	0.0378596070	0.0016781618	-0.0066716876
0.2088220900	-0.0009999500	0.0374488420	0.0016613237	-0.0040672934
0.2094157500	-0.0009999500	0.0373650040	0.0016585775	-0.0035363866
0.2121021600	-0.0009999500	0.0369846450	0.0016421963	-0.0011400575
0.2129645300	-0.0009999500	0.0368620900	0.0016377211	-0.0003777349
0.2154191400	-0.0009999500	0.0365123860	0.0016221727	0.0018067902
0.2165653100	-0.0009999500	0.0363484770	0.0016162136	0.0028237584
0.2187744500	-0.0009999500	0.0360317940	0.0016038295	0.0047570160
0.2202393100	-0.0009999500	0.0358210090	0.0015974971	0.0060397401
0.2221359900	-0.0009999500	0.0355474430	0.0015872482	0.0077075548
0.2239655000	-0.0009999500	0.0352825670	0.0015826875	0.0093120728
0.2255370500	-0.0009999500	0.0350545120	0.0015743472	0.0107029810
0.2277332100	-0.0009999500	0.0347346180	0.0015710150	0.0126562830
0.2288860200	-0.0009999500	0.0345663130	0.0015652641	0.0136719570
0.2315065600	-0.0009999500	0.0341823360	0.0015609130	0.0159553510
0.2322601100	-0.0009999500	0.0340716650	0.0015576764	0.0166118820
0.2352716600	-0.0009999500	0.0336278010	0.0015488131	0.0192328690
0.2356471900	-0.0009999500	0.0335723240	0.0015472239	0.0195596630
0.2390496600	-0.0009999500	0.0330679120	0.0015382909	0.0225225560
0.2390864000	-0.0009999500	0.0330624540	0.0015381190	0.0225547980
0.2394535800	-0.0009999500	0.0330077070	0.0015369411	0.0228770210
0.2425205700	-0.0009999500	0.0325504730	0.0015231680	0.0255695450
0.2428378200	-0.0009999500	0.0325030240	0.0015221722	0.0258465800
0.2459404500	-0.0009999500	0.0320378470	0.0015070385	0.0285598560
0.2466266200	-0.0009999500	0.0319346340	0.0015050966	0.0291517210
0.2494059800	-0.0009999500	0.0315155950	0.0014918919	0.0315477440
0.2504340100	-0.0009999500	0.0313600940	0.0014884479	0.0324430350
0.2528756300	-0.0009999500	0.0309899320	0.0014751861	0.0345360900
0.2543000600	-0.0009999500	0.0307732840	0.0014682586	0.0357483630
0.2563771600	-0.0009999500	0.0304566530	0.0014569595	0.0375383610
0.2582418300	-0.0009999500	0.0301714710	0.0014501512	0.0391443300
0.2599034300	-0.0009999500	0.0299167950	0.0014424250	0.0405673050
0.2622672900	-0.0009999500	0.0295532770	0.0014413954	0.0425892360
0.2634149800	-0.0009999500	0.0293764210	0.0014360481	0.0435670950
0.2663638300	-0.0009999500	0.0289204790	0.0014301290	0.0460715030
0.2669836000	-0.0009999500	0.0288244540	0.0014271723	0.0465991530
0.2704862700	-0.0009999500	0.0282799600	0.0014150035	0.0495787040
0.2705877100	-0.0009999500	0.0282641610	0.0014145183	0.0496648920
0.2713143500	-0.0009999500	0.0281505940	0.0014118970	0.0502795730
0.2742364400	-0.0009999500	0.0276939830	0.0013968943	0.0527525400
0.2746631500	-0.0009999500	0.0276270970	0.0013956342	0.0531150700
0.2779126200	-0.0009999500	0.0271166130	0.0013786583	0.0558855120
0.2789024700	-0.0009999500	0.0269606110	0.0013750558	0.0567194930
0.2816865400	-0.0009999500	0.0265209000	0.0013608733	0.0590502250
0.2832708400	-0.0009999500	0.0262698490	0.0013536966	0.0603712870
0.2855268700	-0.0009999500	0.0259116310	0.0013417525	0.0622498280
0.2877526300	-0.0009999500	0.0255570040	0.0013373786	0.0641145180
0.2893680600	-0.0009999500	0.0252991490	0.0013299532	0.0654552580
0.2922901500	-0.0009999500	0.0248310960	0.0013257302	0.0678726810
0.2931283100	-0.0009999500	0.0246966090	0.0013221165	0.0685677380
0.2967260500	-0.0009999500	0.0241173840	0.0013145461	0.0715908330
0.2968981000	-0.0009999500	0.0240896380	0.0013138201	0.0717352180
0.2979033000	-0.0009999500	0.0239269860	0.0013106010	0.0725708380
0.3006925600	-0.0009999500	0.0234757400	0.0012970324	0.0748903450
0.3011742500	-0.0009999500	0.0233975500	0.0012955915	0.0752890480
0.3044908600	-0.0009999500	0.0228583100	0.0012783475	0.0780252670
0.3056115500	-0.0009999500	0.0226754830	0.0012744584	0.0789441540
0.3083355400	-0.0009999500	0.0222304300	0.0012601621	0.0811876060
0.3100921800	-0.0009999500	0.0219424480	0.0012537441	0.0826240110
0.3122120200	-0.0009999500	0.0215944030	0.0012438189	0.0843383300
0.3146646000	-0.0009999500	0.0211903730	0.0012368315	0.0863442270
0.3160564300	-0.0009999500	0.0209607480	0.0012309325	0.0874811780
0.3193640100	-0.0009999500	0.0204132440	0.0012283096	0.0901504310
0.3198980700	-0.0009999500	0.0203247130	0.0012262018	0.0905817520
0.3217970400	-0.0009999500	0.0200088830	0.0012237503	0.0921137780
0.3236464300	-0.0009999500	0.0197013770	0.0012162848	0.0935987830
0.3242251300	-0.0009999500	0.0196048230	0.0012167226	0.0940663740
0.3273416200	-0.0009999500	0.0190842360	0.0012030288	0.0965584220
0.3289783600	-0.0009999500	0.0188100150	0.0012027992	0.0978663490
0.3307544900	-0.0009999500	0.0185118880	0.0011955693	0.0992811920
0.3326507800	-0.0009999500	0.0181931030	0.0011840001	0.1007951000
0.3358618600	-0.0009999500	0.0176514650	0.0011787964	0.1034044400
0.3363359300	-0.0009999500	0.0175714640	0.0011759879	0.1037864300
0.3371861300	-0.0009999500	0.0174274410	0.0011756081	0.1044696300
0.3400311800	-0.0009999500	0.0169455820	0.0011625915	0.1067551500
0.3418455400	-0.0009999500	0.0166370830	0.0011586134	0.1081996000
0.3440223300	-0.0009999500	0.0162667970	0.0011443897	0.1099283400
0.3470550500	-0.0009999500	0.0157487150	0.0011429452	0.1123241600
0.3482438900	-0.0009999500	0.0155456750	0.0011377515	0.1132611000
0.3494081200	-0.0009999500	0.0153459380	0.0011357707	0.1141584500
0.3525591500	-0.0009999500	0.0148052450	0.0011196393	0.1165991900
0.3553628300	-0.0009999500	0.0143219880	0.0011182551	0.1187591300
0.3569421500	-0.0009999500	0.0140497890	0.0011118619	0.1199910100
0.3588821900	-0.0009999500	0.0137139340	0.0011093988	0.1215133700
0.3611237700	-0.0009999500	0.0133258860	0.0010977862	0.1232875000
0.3629920800	-0.0009999500	0.0130011170	0.0010988608	0.1247290800
0.3652296700	-0.0009999500	0.0126121090	0.0010894870	0.1264661700
0.3680312600	-0.0009999500	0.0121230730	0.0010869462	0.1286419300
0.3693012900	-0.0009999500	0.0119014080	0.0010800259	0.1296294900
0.3703557300	-0.0009999500	0.0117166360	0.0010814025	0.1304497400
0.3733717500	-0.0009999500	0.0111880540	0.0010687267	0.1327989400
0.3771296400	-0.0009999500	0.0105268600	0.0010652424	0.1357474500
0.3774373500	-0.0009999500	0.0104727300	0.0010636360	0.1359888900
0.3776903700	-0.0009999500	0.0104280440	0.0010639165	0.1361844200
0.3815191700	-0.0009999500	0.0097517325	0.0010476647	0.1391377200
0.3851475700	-0.0009999500	0.0091083338	0.0010432952	0.1419106300
0.3856458100	-0.0009999500	0.0090199718	0.0010414536	0.1422899700
0.3862601500	-0.0009999500	0.0089105973	0.0010399739	0.1427570700
0.3897968200	-0.0009999500	0.0082810149	0.0010216251	0.1454366100
0.3927392700	-0.0009999500	0.0077551901	0.0010185342	0.1476942200
0.3940445500	-0.0009999500	0.0075218943	0.0010132788	0.1486922800
0.3956648400	-0.0009999500	0.0072311610	0.0010103322	0.1499203700
0.3983768800	-0.0009999500	0.0067445803	0.0009971477	0.1519751700
0.4006946400	-0.0009999500	0.0063271029	0.0009961408	0.1537261000
0.4027783300	-0.0009999500	0.0059517389	0.0009881658	0.1552966100
0.4052826800	-0.0009999500	0.0054988088	0.0009846800	0.1571699500
0.4071935100	-0.0009999500	0.0051532537	0.0009757720	0.1585946800
0.4088347600	-0.0009999500	0.0048552887	0.0009750539	0.1598245700
0.4116665700	-0.0009999500	0.0043411069	0.0009635611	0.1619446100
0.4148795900	-0.0009999500	0.0037554223	0.0009594115	0.1643591700
0.4161628500	-0.0009999500	0.0035215151	0.0009534048	0.1653218700
0.4173522600	-0.0009999500	0.0033038605	0.0009532493	0.1662124400
0.4206678300	-0.0009999500	0.0026971102	0.0009401711	0.1686806200
0.4241736200	-0.0009999500	0.0020530568	0.0009357893	0.1713032900
0.4251576100	-0.0009999500	0.0018722886	0.0009315289	0.1720356900
0.4261009700	-0.0009999500	0.0016983137	0.0009313568	0.1727402800
0.4296445000	-0.0009999500	0.0010448332	0.0009173782	0.1753652400
0.4334265000	-0.0009999500	0.0003447033	0.0009110765	0.1781520200
0.4341840400	-0.0009999500	0.0002044665	0.0009075694	0.1787064700
0.4348954000	-0.0009999500	0.0000722727	0.0009072148	0.1792347700
0.4387542600	-0.0009999500	-0.0006448119	0.0008928026	0.1820819500
0.4428816400	-0.0009999500	-0.0014147278	0.0008868095	0.1851011700
0.4433435800	-0.0009999500	-0.0015008920	0.0008847563	0.1854371100
0.4437693100	-0.0009999500	-0.0015806106	0.0008846738	0.1857502200
0.4479934900	-0.0009999500	-0.0023715803	0.0008693280	0.1888435200
0.4526449100	-0.0009999500	-0.0032458913	0.0008626076	0.1922644700
0.4527152200	-0.0009999500	-0.0032591040	0.0008622900	0.1923158200
0.4527776200	-0.0009999500	-0.0032708806	0.0008622140	0.1923617400
0.4575644400	-0.0009999500	-0.0041741384	0.0008425617	0.1958549600
0.4615485400	-0.0009999500	-0.0049289167	0.0008384348	0.1987644100
0.4626483600	-0.0009999500	-0.0051372871	0.0008347843	0.1995716400
0.4644446100	-0.0009999500	-0.0054790052	0.0008322366	0.2008647000
0.4679279000	-0.0009999500	-0.0061416286	0.0008205958	0.2033786000
0.4699463000	-0.0009999500	-0.0065271421	0.0008198034	0.2048461600
0.4731527600	-0.0009999500	-0.0071397037	0.0008091021	0.2071772400
0.4778658700	-0.0009999500	-0.0080436673	0.0008009082	0.2105946800
0.4783165500	-0.0009999500	-0.0081301341	0.0007995334	0.2109200700
0.4793380800	-0.0009999500	-0.0083268937	0.0007974916	0.2116582700
0.4835483100	-0.0009999500	-0.0091376910	0.0007825077	0.2146903100
0.4852340500	-0.0009999500	-0.0094635142	0.0007795624	0.2159048500
0.4890439500	-0.0009999500	-0.0102004590	0.0007672288	0.2186344100
0.4924067900	-0.0009999500	-0.0108533210	0.0007623297	0.2210844300
0.4946865100	-0.0009999500	-0.0112962970	0.0007557908	0.2227498300
0.4995977300	-0.0009999500	-0.0122540930	0.0007493640	0.2263206700
0.5003256800	-0.0009999500	-0.0123961840	0.0007472117	0.2268499900
0.5024623900	-0.0009999500	-0.0128147670	0.0007428631	0.2284026600
0.5058212900	-0.0009999500	-0.0134726320	0.0007310869	0.2308397300
0.5070608300	-0.0009999500	-0.0137162850	0.0007293174	0.2317457900
0.5112702800	-0.0009999500	-0.0145443670	0.0007143306	0.2347890700
0.5147401100	-0.0009999500	-0.0152294110	0.0007096176	0.2372980700
0.5166441200	-0.0009999500	-0.0156056010	0.0007037757	0.2386815800
0.5206305400	-0.0009999500	-0.0163960480	0.0006971339	0.2415405100
0.5219841000	-0.0009999500	-0.0166643630	0.0006928486	0.2425084300
0.5226706900	-0.0009999500	-0.0168009700	0.0006917375	0.2430009800
0.5273296800	-0.0009999500	-0.0177284850	0.0006763531	0.2463482300
0.5309203300	-0.0009999500	-0.0184459480	0.0006714512	0.2489704900
0.5326454600	-0.0009999500	-0.0187908600	0.0006660182	0.2502298700
0.5361922400	-0.0009999500	-0.0195025170	0.0006604320	0.2528185500
0.5378708200	-0.0009999500	-0.0198392400	0.0006551091	0.2540397000
0.5385319600	-0.0009999500	-0.0199722720	0.0006539679	0.2545243800
0.5436980700	-0.0009999500	-0.0210132020	0.0006405916	0.2582813200
0.5452275300	-0.0009999500	-0.0213223080	0.0006373566	0.2593992700
0.5504611700	-0.0009999500	-0.0223820120	0.0006246158	0.2632546400
0.5521924500	-0.0009999500	-0.0227336080	0.0006206672	0.2645340000
0.5579051400	-0.0009999500	-0.0238964450	0.0006075918	0.2687725700
0.5592972000	-0.0009999500	-0.0241806230	0.0006037257	0.2698122300
0.5655089600	-0.0009999500	-0.0254519190	0.0005902466	0.2744946800
0.5663684600	-0.0009999500	-0.0256283080	0.0005883157	0.2751436200
0.5730791700	-0.0009999500	-0.0270091690	0.0005699886	0.2801423700
0.5740135900	-0.0009999500	-0.0272019930	0.0005679425	0.2808392000
0.5807061200	-0.0009999500	-0.0285868270	0.0005497864	0.2858387500
0.5818241200	-0.0009999500	-0.0288188360	0.0005471772	0.2866573600
0.5879170300	-0.0009999500	-0.0300864990	0.0005299408	0.2912222700
0.5889318000	-0.0009999500	-0.0302981730	0.0005273350	0.2920225300
0.5941012500	-0.0009999500	-0.0313789730	0.0005127516	0.2959907100
0.5949963300	-0.0009999500	-0.0315665080	0.0005103799	0.2966801500
0.5992521600	-0.0009999500	-0.0324599330	0.0004969571	0.3001181800
0.6000892500	-0.0009999500	-0.0326360050	0.0004947311	0.3007723700
0.6039490100	-0.0009999500	-0.0334492100	0.0004833065	0.3038004000
0.6046847700	-0.0009999500	-0.0336044840	0.0004811037	0.3044005000
0.6081460700	-0.0009999500	-0.0343360980	0.0004701686	0.3072096400
0.6088204400	-0.0009999500	-0.0344788540	0.0004681434	0.3077545200
0.6123282900	-0.0009999500	-0.0352225940	0.0004573311	0.3106285300
0.6129353000	-0.0009999500	-0.0353514850	0.0004557254	0.3111380900
0.6169673800	-0.0009999500	-0.0362091400	0.0004437426	0.3144047300
0.6176295300	-0.0009999500	-0.0363502320	0.0004420806	0.3149278200
0.6221491100	-0.0009999500	-0.0373150780	0.0004283087	0.3185678100
0.6228590600	-0.0009999500	-0.0374669400	0.0004264482	0.3191358400
0.6272735000	-0.0009999500	-0.0384129580	0.0004119437	0.3227317900
0.6280024600	-0.0009999500	-0.0385694800	0.0004098158	0.3233380600
0.6319835800	-0.0009999500	-0.0394257640	0.0003968788	0.3266097300
0.6326520400	-0.0009999500	-0.0395697880	0.0003948740	0.3271816700
0.6360558300	-0.0009999500	-0.0403042770	0.0003840192	0.3301061700
0.6366387000	-0.0009999500	-0.0404302370	0.0003822800	0.3306013000
0.6397280100	-0.0009999500	-0.0410987770	0.0003720919	0.3332288000
0.6402398900	-0.0009999500	-0.0412096980	0.0003705156	0.3336676400
0.6427902600	-0.0009999500	-0.0417629740	0.0003609857	0.3359518100
0.6432479600	-0.0009999500	-0.0418623870	0.0003594682	0.3363500500
0.6455308800	-0.0009999500	-0.0423587260	0.0003510248	0.3383422200
0.6459422700	-0.0009999500	-0.0424482640	0.0003495005	0.3387138500
0.6479854000	-0.0009999500	-0.0428933280	0.0003417235	0.3405393100
0.6484210500	-0.0009999500	-0.0429883110	0.0003401186	0.3409257200
0.6504522600	-0.0009999500	-0.0434316170	0.0003320084	0.3427390200
0.6509625900	-0.0009999500	-0.0435431000	0.0003302836	0.3431923100
0.6530332000	-0.0009999500	-0.0439958760	0.0003223746	0.3450236300
0.6536091600	-0.0009999500	-0.0441219470	0.0003204458	0.3455308100
0.6555683000	-0.0009999500	-0.0445511830	0.0003131782	0.3472721000
0.6561055200	-0.0009999500	-0.0446689910	0.0003112749	0.3477635100
0.6578795300	-0.0009999500	-0.0450583770	0.0003051880	0.3493797200
0.6583438500	-0.0009999500	-0.0451603720	0.0003036257	0.3498029400
0.6600228000	-0.0009999500	-0.0455295030	0.0002980485	0.3513653000
0.6603848300	-0.0009999500	-0.0456091610	0.0002967868	0.3516945500
0.6621148000	-0.0009999500	-0.0459900980	0.0002907277	0.3532725300
0.6623664500	-0.0009999500	-0.0460455490	0.0002897374	0.3535064200
0.6640980800	-0.0009999500	-0.0464274510	0.0002837423	0.3551078700
0.6642870900	-0.0009999500	-0.0464691740	0.0002830919	0.3552844500
0.6659153700	-0.0009999500	-0.0468287800	0.0002764721	0.3568241900
0.6661222600	-0.0009999500	-0.0468745010	0.0002758651	0.3570177600
0.6676074900	-0.0009999500	-0.0472029630	0.0002694677	0.3584300600
0.6678427500	-0.0009999500	-0.0472550280	0.0002686115	0.3586548600
0.6692373200	-0.0009999500	-0.0475638360	0.0002630055	0.3599802600
0.6694487900	-0.0009999500	-0.0476106890	0.0002621884	0.3601816900
0.6708233400	-0.0009999500	-0.0479154210	0.0002584664	0.3614841100
0.6708430100	-0.0009999500	-0.0479197870	0.0002583833	0.3615027400
0.6708462200	-0.0009999500	-0.0479205030	0.0002583736	0.3615058400
0.6720826000	-0.0009999500	-0.0481949040	0.0002504688	0.3626872000
0.6725523500	-0.0009999500	-0.0482992420	0.0002493994	0.3631413900
0.6733558800	-0.0009999500	-0.0484777580	0.0002455486	0.3639190200
0.6741281200	-0.0009999500	-0.0486494640	0.0002423951	0.3646628000
0.6746912600	-0.0009999500	-0.0487747160	0.0002401761	0.3652018300
0.6755881300	-0.0009999500	-0.0489743310	0.0002367702	0.3660680100
0.6760187100	-0.0009999500	-0.0490701940	0.0002347600	0.3664872900
0.6769598700	-0.0009999500	-0.0492798980	0.0002308864	0.3673981100
0.6773300200	-0.0009999500	-0.0493623950	0.0002293559	0.3677564000
0.6782676000	-0.0009999500	-0.0495714990	0.0002251371	0.3686762200
0.6785861300	-0.0009999500	-0.0496425810	0.0002238431	0.3689864900
0.6795289500	-0.0009999500	-0.0498530450	0.0002199536	0.3699083300
0.6798070100	-0.0009999500	-0.0499151460	0.0002187442	0.3701826300
0.6807263500	-0.0009999500	-0.0501205770	0.0002150553	0.3710741400
0.6810328400	-0.0009999500	-0.0501890890	0.0002136059	0.3713728500
0.6818939400	-0.0009999500	-0.0503816870	0.0002069299	0.3722126200
0.6823701300	-0.0009999500	-0.0504882340	0.0002041356	0.3726784900
0.6832776100	-0.0009999500	-0.0506914150	0.0002014703	0.3735903200
0.6835096500	-0.0009999500	-0.0507433750	0.0002003014	0.3738237300
0.6843069800	-0.0009999500	-0.0509220700	0.0001990292	0.3746257700
0.6845018300	-0.0009999500	-0.0509657340	0.0001980770	0.3748211000
0.6845578600	-0.0009999500	-0.0509782960	0.0001979060	0.3748778100
0.6854478100	-0.0009999500	-0.0511778820	0.0001924769	0.3757793000
0.6857932800	-0.0009999500	-0.0512554090	0.0001918052	0.3761382100
0.6863719800	-0.0009999500	-0.0513852870	0.0001897204	0.3767279700
0.6870012900	-0.0009999500	-0.0515266210	0.0001882140	0.3773543800
0.6872810700	-0.0009999500	-0.0515894780	0.0001865527	0.3776349100
0.6881415200	-0.0009999500	-0.0517828460	0.0001843964	0.3785044600
0.6881631600	-0.0009999500	-0.0517877270	0.0001843011	0.3785261800
0.6882666300	-0.0009999500	-0.0518109870	0.0001840416	0.3786318300
0.6889992400	-0.0009999500	-0.0519757570	0.0001805668	0.3793778100
0.6891313800	-0.0009999500	-0.0520054850	0.0001800227	0.3795105800
0.6898160000	-0.0009999500	-0.0521595520	0.0001750826	0.3801951400
0.6900769500	-0.0009999500	-0.0522183140	0.0001735497	0.3804685500
0.6906099900	-0.0009999500	-0.0523383650	0.0001706427	0.3810173000
0.6909902100	-0.0009999500	-0.0524240290	0.0001692288	0.3814049400
0.6914006500	-0.0009999500	-0.0525165130	0.0001669109	0.3818272900
0.6918702700	-0.0009999500	-0.0526223890	0.0001649236	0.3823113400
0.6922074000	-0.0009999500	-0.0526984180	0.0001631397	0.3826610100
0.6927208300	-0.0009999500	-0.0528142450	0.0001608350	0.3832012100
0.6929980500	-0.0009999500	-0.0528767930	0.0001600936	0.3834877000
0.6935551200	-0.0009999500	-0.0530025400	0.0001585951	0.3840548100
0.6937775000	-0.0009999500	-0.0530527570	0.0001575869	0.3842823200
0.6943554900	-0.0009999500	-0.0531833100	0.0001553751	0.3848671300
0.6945489000	-0.0009999500	-0.0532270110	0.0001541903	0.3850602800
0.6951299300	-0.0009999500	-0.0533583160	0.0001504147	0.3856607400
0.6953076700	-0.0009999500	-0.0533984970	0.0001493702	0.3858434600
0.6959062200	-0.0009999500	-0.0535338710	0.0001466184	0.3864640000
0.6960646500	-0.0009999500	-0.0535697080	0.0001457821	0.3866304800
0.6966716100	-0.0009999500	-0.0537070410	0.0001433876	0.3872675000
0.6968222300	-0.0009999500	-0.0537411460	0.0001427504	0.3874266100
0.6974167200	-0.0009999500	-0.0538757440	0.0001392565	0.3880600000
0.6975914800	-0.0009999500	-0.0539153260	0.0001386069	0.3882475800
0.6981570100	-0.0009999500	-0.0540434460	0.0001350113	0.3888523900
0.6983919700	-0.0009999500	-0.0540966910	0.0001340363	0.3891058000
0.6989096400	-0.0009999500	-0.0542140380	0.0001315613	0.3896577100
0.6992198200	-0.0009999500	-0.0542843790	0.0001304296	0.3899850200
0.6996754400	-0.0009999500	-0.0543877220	0.0001273274	0.3904629600
0.7000798600	-0.0009999500	-0.0544794950	0.0001253916	0.3908977500
0.7004329600	-0.0009999500	-0.0545596480	0.0001228679	0.3912677800
0.7009564600	-0.0009999500	-0.0546785150	0.0001205996	0.3918138100
0.7011864800	-0.0009999500	-0.0547307540	0.0001193334	0.3920535700
0.7018262700	-0.0009999500	-0.0548761110	0.0001164445	0.3927215900
0.7019275400	-0.0009999500	-0.0548991370	0.0001157170	0.3928283200
0.7026507300	-0.0009999500	-0.0550635380	0.0001135056	0.3935971900
0.7026822000	-0.0009999500	-0.0550706950	0.0001133572	0.3936304500
0.7026870300	-0.0009999500	-0.0550717930	0.0001133366	0.3936356000
0.7034452600	-0.0009999500	-0.0552442820	0.0001083879	0.3944450000
0.7036039200	-0.0009999500	-0.0552803950	0.0001079201	0.3946171700
0.7042598100	-0.0009999500	-0.0554297120	0.0001035750	0.3953172000
0.7046019400	-0.0009999500	-0.0555076190	0.0001024105	0.3956831100
0.7051398200	-0.0009999500	-0.0556301550	0.0000995592	0.3962505200
0.7055790400	-0.0009999500	-0.0557302570	0.0000980119	0.3967099500
0.7060288800	-0.0009999500	-0.0558328110	0.0000958774	0.3971850300
0.7064588700	-0.0009999500	-0.0559308640	0.0000931443	0.3976403800
0.7068783000	-0.0009999500	-0.0560265560	0.0000909340	0.3980988000
0.7072646600	-0.0009999500	-0.0561147260	0.0000886717	0.3985300400
0.7077041900	-0.0009999500	-0.0562150700	0.0000862531	0.3990253200
0.7080574600	-0.0009999500	-0.0562957490	0.0000854595	0.3994158800
0.7085641000	-0.0009999500	-0.0564114790	0.0000841517	0.3999704100
0.7088590900	-0.0009999500	-0.0564788920	0.0000831542	0.4002942100
0.7094218100	-0.0009999500	-0.0566075260	0.0000812082	0.4008985800
0.7096673300	-0.0009999500	-0.0566636730	0.0000801349	0.4011610200
0.7102558000	-0.0009999500	-0.0567982720	0.0000762060	0.4017952700
0.7104724000	-0.0009999500	-0.0568478330	0.0000749468	0.4020266800
0.7110899100	-0.0009999500	-0.0569891710	0.0000717377	0.4026897800
0.7112777800	-0.0009999500	-0.0570321980	0.0000702777	0.4028908600
0.7119076300	-0.0009999500	-0.0571764480	0.0000667407	0.4035759000
0.7120799400	-0.0009999500	-0.0572159330	0.0000655589	0.4037638000
0.7127192600	-0.0009999500	-0.0573624630	0.0000600253	0.4044564100
0.7129160200	-0.0009999500	-0.0574075800	0.0000588310	0.4046748900
0.7135427600	-0.0009999500	-0.0575513060	0.0000555015	0.4053668400
0.7137710500	-0.0009999500	-0.0576036800	0.0000542351	0.4056145500
0.7143836600	-0.0009999500	-0.0577442830	0.0000514120	0.4062871900
0.7146509900	-0.0009999500	-0.0578056540	0.0000501471	0.4065797900
0.7152282600	-0.0009999500	-0.0579382290	0.0000459656	0.4072021200
0.7155696200	-0.0009999500	-0.0580166620	0.0000442037	0.4075770700
0.7160685700	-0.0009999500	-0.0581313300	0.0000414803	0.4081279000
0.7164921800	-0.0009999500	-0.0582287310	0.0000390758	0.4085889500
0.7169061900	-0.0009999500	-0.0583239380	0.0000366337	0.4090516900
0.7174213500	-0.0009999500	-0.0584424620	0.0000341414	0.4096382900
0.7177221200	-0.0009999500	-0.0585116860	0.0000315531	0.4099712100
0.7183800300	-0.0009999500	-0.0586631630	0.0000298213	0.4107110800
0.7185277900	-0.0009999500	-0.0586972010	0.0000290801	0.4108759500
0.7192626600	-0.0009999500	-0.0588665120	0.0000256164	0.4116740200
0.7193364500	-0.0009999500	-0.0588835140	0.0000251735	0.4117538600
0.7193528400	-0.0009999500	-0.0588872950	0.0000251184	0.4117718600
0.7201469500	-0.0009999500	-0.0590703790	0.0000207298	0.4126514200
0.7203321500	-0.0009999500	-0.0591131000	0.0000194611	0.4128555400
0.7209770100	-0.0009999500	-0.0592618850	0.0000152201	0.4135763900
0.7213469700	-0.0009999500	-0.0593472910	0.0000130433	0.4139932100
0.7218189200	-0.0009999500	-0.0594562480	0.0000091430	0.4145138000
0.7223815900	-0.0009999500	-0.0595862340	0.0000065462	0.4151429800
0.7226471300	-0.0009999500	-0.0596475860	0.0000049741	0.4154381200
0.7233967200	-0.0009999500	-0.0598208680	0.0000011597	0.4162668600
0.7234576900	-0.0009999500	-0.0598349650	0.0000008094	0.4163339400
0.7237333700	-0.0009999500	-0.0598987420	-0.0000002053	0.4166375700
0.7242671800	-0.0009999500	-0.0600222270	-0.0000025058	0.4172236000
0.7243909200	-0.0009999500	-0.0600508640	-0.0000032640	0.4173594100
0.7250827600	-0.0009999500	-0.0602110210	-0.0000069269	0.4181247700
0.7253935300	-0.0009999500	-0.0602829980	-0.0000082799	0.4184701700
0.7259159700	-0.0009999500	-0.0604040140	-0.0000128683	0.4190433600
0.7264016900	-0.0009999500	-0.0605165920	-0.0000153964	0.4195954800
0.7267365500	-0.0009999500	-0.0605942230	-0.0000174321	0.4199744200
0.7274373800	-0.0009999500	-0.0607567800	-0.0000221696	0.4207422700
0.7275335800	-0.0009999500	-0.0607791100	-0.0000227509	0.4208499500
0.7278041800	-0.0009999500	-0.0608419030	-0.0000237888	0.4211483600
0.7282998600	-0.0009999500	-0.0609569440	-0.0000256953	0.4216974100
0.7284969700	-0.0009999500	-0.0610027280	-0.0000269448	0.4219107900
0.7290509300	-0.0009999500	-0.0611313800	-0.0000294322	0.4225189700
0.7296249900	-0.0009999500	-0.0612647720	-0.0000320316	0.4231472900
0.7297857400	-0.0009999500	-0.0613021370	-0.0000336119	0.4233203200
0.7299940600	-0.0009999500	-0.0613505730	-0.0000334940	0.4235547500
0.7304318000	-0.0009999500	-0.0614523550	-0.0000353875	0.4240429100
0.7309426100	-0.0009999500	-0.0615711920	-0.0000404488	0.4246043600
0.7312362800	-0.0009999500	-0.0616395290	-0.0000394436	0.4249306000
0.7321321400	-0.0009999500	-0.0618480970	-0.0000444874	0.4259293700
0.7322447300	-0.0009999500	-0.0618743150	-0.0000451542	0.4260536700
0.7325235600	-0.0009999500	-0.0619392920	-0.0000470300	0.4263623400
0.7331423800	-0.0009999500	-0.0620834830	-0.0000502932	0.4270431700
0.7333493200	-0.0009999500	-0.0621317330	-0.0000508809	0.4272714600
0.7339738000	-0.0009999500	-0.0622773470	-0.0000552578	0.4279354500
0.7343589700	-0.0009999500	-0.0623672160	-0.0000562096	0.4283694600
0.7347337600	-0.0009999500	-0.0624546780	-0.0000574248	0.4287879200
0.7352605500	-0.0009999500	-0.0625776650	-0.0000612289	0.4293545200
0.7355206000	-0.0009999500	-0.0626383950	-0.0000618351	0.4296418100
0.7361491300	-0.0009999500	-0.0627852380	-0.0000637847	0.4303365900
0.7363739600	-0.0009999500	-0.0628377870	-0.0000648412	0.4305770100
0.7370223400	-0.0009999500	-0.0629893840	-0.0000670993	0.4312903000
0.7370911800	-0.0009999500	-0.0630054700	-0.0000674796	0.4313648600
0.7371093600	-0.0009999500	-0.0630097240	-0.0000675287	0.4313848300
0.7377823600	-0.0009999500	-0.0631671620	-0.0000719430	0.4320987800
0.7378724800	-0.0009999500	-0.0631882550	-0.0000722385	0.4321974200
0.7384442700	-0.0009999500	-0.0633220900	-0.0000732344	0.4328243400
0.7385546600	-0.0009999500	-0.0633479360	-0.0000738194	0.4329417000
0.7391186400	-0.0009999500	-0.0634800270	-0.0000742281	0.4335551900
0.7392486300	-0.0009999500	-0.0635104700	-0.0000739562	0.4336970200
0.7392770100	-0.0009999500	-0.0635171090	-0.0000740159	0.4337272000
0.7395059500	-0.0009999500	-0.0635707830	-0.0000759191	0.4339678000
0.7400322000	-0.0009999500	-0.0636941050	-0.0000792666	0.4345237900
0.7400928100	-0.0009999500	-0.0637083200	-0.0000792625	0.4345925500
0.7406886800	-0.0009999500	-0.0638480560	-0.0000805490	0.4352462000
0.7407667000	-0.0009999500	-0.0638663620	-0.0000810690	0.4353284800
0.7413571500	-0.0009999500	-0.0640048830	-0.0000808533	0.4359757900
0.7413788400	-0.0009999500	-0.0640099790	-0.0000809356	0.4359998100
0.7415336400	-0.0009999500	-0.0640463160	-0.0000813529	0.4361684300
0.7419356100	-0.0009999500	-0.0641406770	-0.0000823387	0.4366073600
0.7420015900	-0.0009999500	-0.0641561670	-0.0000822297	0.4366794800
0.7424418300	-0.0009999500	-0.0642595590	-0.0000814235	0.4371705100
0.7426260700	-0.0009999500	-0.0643028390	-0.0000814320	0.4373773000
0.7429239700	-0.0009999500	-0.0643728380	-0.0000807445	0.4377072200
0.7433871600	-0.0009999500	-0.0644817130	-0.0000789024	0.4382183800
0.7434605400	-0.0009999500	-0.0644989460	-0.0000789277	0.4382984300
0.7435117400	-0.0009999500	-0.0645109940	-0.0000785703	0.4383539300
0.7439878000	-0.0009999500	-0.0646229540	-0.0000767397	0.4388727500
0.7440382200	-0.0009999500	-0.0646348070	-0.0000766703	0.4389277400
0.7442463000	-0.0009999500	-0.0646837580	-0.0000755072	0.4391494400
0.7444872300	-0.0009999500	-0.0647404420	-0.0000741232	0.4394097000
0.7445563100	-0.0009999500	-0.0647567140	-0.0000735531	0.4394845400
0.7449187600	-0.0009999500	-0.0648420230	-0.0000706376	0.4398742900
0.7451223100	-0.0009999500	-0.0648899450	-0.0000695188	0.4400816900
0.7453414200	-0.0009999500	-0.0649415480	-0.0000688227	0.4403130100
0.7456690100	-0.0009999500	-0.0650187060	-0.0000667323	0.4406529400
0.7457541200	-0.0009999500	-0.0650387560	-0.0000668745	0.4407418100
0.7460967900	-0.0009999500	-0.0651194900	-0.0000626069	0.4410909100
0.7461001300	-0.0009999500	-0.0651202650	-0.0000624732	0.4410942500
0.7464072700	-0.0009999500	-0.0651926550	-0.0000486411	0.4414112000
0.7467637700	-0.0009999500	-0.0652766820	0.0000717575	0.4417119600
0.7467795600	-0.0009999500	-0.0652804150	0.0000758509	0.4417276400