TITLE     = "Translation of CGNS file naca0012Flow00000383.cgns"
VARIABLES = "x"
"y"
"z"
"Cp"
DATASETAUXDATA Common.DensityVar="4"
DATASETAUXDATA Common.PressureVar="10"
DATASETAUXDATA Common.TemperatureVar="9"
DATASETAUXDATA Common.UVar="5"
DATASETAUXDATA Common.VectorVarsAreVelocity="TRUE"
DATASETAUXDATA Common.VVar="6"
DATASETAUXDATA Common.WVar="7"
ZONE T="COFFE, MIT adapt Y=-0.001"
 STRANDID=6, SOLUTIONTIME=383
 Nodes=407, Elements=407, ZONETYPE=FELineSeg
 DATAPACKING=POINT
 AUXDATA CGNS.CGNSBase_t="Base"
 AUXDATA CGNS.Zone_t="Zone"
 DT=(DOUBLE DOUBLE DOUBLE DOUBLE )
 -1.448149172E-01 -1.000000000E-03 -2.387878348E-02 6.089112721E-01
 -1.446104365E-01 -1.000000000E-03 -2.394686213E-02 6.082069719E-01
 -1.515313890E-01 -1.000000000E-03 -2.158558611E-02 6.207670953E-01
 -1.517272070E-01 -1.000000000E-03 -2.151782675E-02 6.210941487E-01
 -1.004362202E-01 -1.000000000E-03 -3.731582953E-02 5.255280609E-01
 -1.004958710E-01 -1.000000000E-03 -3.729931838E-02 5.256098237E-01
 -1.238540278E-01 -1.000000000E-03 -3.055804856E-02 5.671011487E-01
 -1.346782861E-01 -1.000000000E-03 -2.719070969E-02 5.843954183E-01
 -1.237235687E-01 -1.000000000E-03 -3.059752665E-02 5.670103468E-01
 -1.164050420E-01 -1.000000000E-03 -3.278181627E-02 5.533504725E-01
 -1.163258075E-01 -1.000000000E-03 -3.280511086E-02 5.532386879E-01
 -1.099603676E-01 -1.000000000E-03 -3.464464009E-02 5.437022479E-01
 -1.098876909E-01 -1.000000000E-03 -3.466534515E-02 5.436282994E-01
 -1.350549074E-01 -1.000000000E-03 -2.707064583E-02 5.849422226E-01
 -1.348510828E-01 -1.000000000E-03 -2.713658289E-02 5.848378136E-01
 -1.398847722E-01 -1.000000000E-03 -2.551053499E-02 5.824020451E-01
 -8.470807365E-02 -1.000000000E-03 -4.151137851E-02 5.058423550E-01
 -8.476295473E-02 -1.000000000E-03 -4.149724943E-02 5.059437001E-01
 -8.479967734E-02 -1.000000000E-03 -4.148765154E-02 5.060212215E-01
 -9.054046770E-02 -1.000000000E-03 -3.998470062E-02 5.151508347E-01
 -9.047395601E-02 -1.000000000E-03 -4.000254636E-02 5.151139208E-01
 -5.963220997E-02 -1.000000000E-03 -4.771571383E-02 4.822650360E-01
 -5.994363946E-02 -1.000000000E-03 -4.764279171E-02 4.825659381E-01
 -5.986562695E-02 -1.000000000E-03 -4.766130246E-02 4.825017825E-01
 -6.602801716E-02 -1.000000000E-03 -4.618556904E-02 4.967858577E-01
 -6.596785994E-02 -1.000000000E-03 -4.620020112E-02 4.966743349E-01
 -4.163521861E-02 -1.000000000E-03 -5.185076590E-02 4.704538273E-01
 -4.134455985E-02 -1.000000000E-03 -5.191649493E-02 4.703800941E-01
 -7.605365142E-02 -1.000000000E-03 -4.371531122E-02 4.987131604E-01
 -5.084315156E-02 -1.000000000E-03 -4.976647595E-02 4.739468970E-01
 -7.616407336E-02 -1.000000000E-03 -4.368755633E-02 4.987597841E-01
 -7.609991430E-02 -1.000000000E-03 -4.370378756E-02 4.987237118E-01
 -3.263239315E-02 -1.000000000E-03 -5.383012600E-02 4.615280063E-01
 -3.255493061E-02 -1.000000000E-03 -5.384715322E-02 4.614244658E-01
 -3.248583285E-02 -1.000000000E-03 -5.386203136E-02 4.613694351E-01
 -2.447132388E-01 -1.000000000E-03 3.307136593E-02 6.883893063E-01
 -2.439114391E-01 -1.000000000E-03 3.143531101E-02 7.905526363E-01
 -2.449740826E-01 -1.000000000E-03 3.370450263E-02 6.094862241E-01
 -2.443448410E-01 -1.000000000E-03 3.231798962E-02 7.304566677E-01
 -2.452985215E-01 -1.000000000E-03 3.453092493E-02 5.547262763E-01
 -2.455655907E-01 -1.000000000E-03 3.532045756E-02 5.100480625E-01
 -2.427574189E-01 -1.000000000E-03 2.946440143E-02 8.742115038E-01
 -2.434672788E-01 -1.000000000E-03 3.068642282E-02 8.270073098E-01
 -2.421459037E-01 -1.000000000E-03 2.855686148E-02 9.084613981E-01
 -2.421705360E-01 -1.000000000E-03 5.162278210E-02 -1.434767825E+00
 -2.416306404E-01 -1.000000000E-03 5.222868790E-02 -1.406400547E+00
 -2.425215663E-01 -1.000000000E-03 5.119278717E-02 -1.458184760E+00
 -2.437996861E-01 -1.000000000E-03 4.944226867E-02 -1.306905774E+00
 -2.432276232E-01 -1.000000000E-03 5.027394534E-02 -1.362047549E+00
 -2.430330276E-01 -1.000000000E-03 5.054605466E-02 -1.391967473E+00
 -2.444709832E-01 -1.000000000E-03 4.831128082E-02 -1.183018865E+00
 -2.439299490E-01 -1.000000000E-03 4.923991122E-02 -1.292761841E+00
 -2.443386827E-01 -1.000000000E-03 4.853755488E-02 -1.208950338E+00
 -2.448178949E-01 -1.000000000E-03 4.762898245E-02 -1.108003384E+00
 -2.450549108E-01 -1.000000000E-03 4.711971650E-02 -1.057436416E+00
 -2.449425911E-01 -1.000000000E-03 4.738116362E-02 -1.061293813E+00
 -2.456267626E-01 -1.000000000E-03 4.565426882E-02 -9.037044107E-01
 -2.454368557E-01 -1.000000000E-03 4.619885981E-02 -9.574488219E-01
 -2.452994765E-01 -1.000000000E-03 4.655694743E-02 -1.014575191E+00
 -2.463381028E-01 -1.000000000E-03 4.246159399E-02 -5.077586342E-01
 -2.462324548E-01 -1.000000000E-03 4.321262937E-02 -4.874021703E-01
 -2.463634635E-01 -1.000000000E-03 4.221604603E-02 -4.642096855E-01
 -2.462019380E-01 -1.000000000E-03 4.341204442E-02 -5.182171113E-01
 -2.460848420E-01 -1.000000000E-03 4.397924509E-02 -6.894962383E-01
 -2.460373295E-01 -1.000000000E-03 4.420402652E-02 -7.242872548E-01
 -2.458146220E-01 -1.000000000E-03 4.504231380E-02 -8.334021297E-01
 -2.464322243E-01 -1.000000000E-03 4.105047439E-02 -2.166513749E-01
 -2.464316727E-01 -1.000000000E-03 4.032864046E-02 -9.858725139E-02
 -2.464166587E-01 -1.000000000E-03 4.143084015E-02 -2.516050084E-01
 -2.463367620E-01 -1.000000000E-03 3.888612525E-02 1.003069181E-01
 -2.462340291E-01 -1.000000000E-03 3.809796461E-02 1.570084246E-01
 -2.464180751E-01 -1.000000000E-03 3.991949903E-02 -4.639827310E-02
 -2.463735304E-01 -1.000000000E-03 3.923614205E-02 1.856960974E-02
 -2.461526317E-01 -1.000000000E-03 3.764653471E-02 2.147494865E-01
 -2.460148593E-01 -1.000000000E-03 3.695910084E-02 3.128986656E-01
 -2.457228880E-01 -1.000000000E-03 3.582479455E-02 4.389189044E-01
 -2.458859959E-01 -1.000000000E-03 3.643488264E-02 3.527348088E-01
 -9.979499750E-02 -1.000000000E-03 7.069090791E-02 -5.881790291E-01
 -1.087941238E-01 -1.000000000E-03 7.122756845E-02 -6.064780604E-01
 -1.550536432E-01 -1.000000000E-03 7.206437913E-02 -7.756148702E-01
 -1.361671801E-01 -1.000000000E-03 7.212867287E-02 -7.028217693E-01
 -1.389577547E-01 -1.000000000E-03 7.214482458E-02 -7.107154712E-01
 -1.450786326E-01 -1.000000000E-03 7.217830410E-02 -7.300587466E-01
 -1.511371707E-01 -1.000000000E-03 7.211452910E-02 -7.583260897E-01
 -1.963801561E-01 -1.000000000E-03 6.898614329E-02 -1.005889326E+00
 -2.003135004E-01 -1.000000000E-03 6.840034027E-02 -1.055282810E+00
 -1.904861550E-01 -1.000000000E-03 6.976481447E-02 -9.679088462E-01
 -1.937449313E-01 -1.000000000E-03 6.936210173E-02 -9.830069513E-01
 -1.710516184E-01 -1.000000000E-03 7.144916560E-02 -8.641453871E-01
 -1.743379191E-01 -1.000000000E-03 7.122596560E-02 -8.712880607E-01
 -1.645079131E-01 -1.000000000E-03 7.175314227E-02 -8.159472958E-01
 -1.854499373E-01 -1.000000000E-03 7.032165170E-02 -9.327944795E-01
 -1.790340233E-01 -1.000000000E-03 7.090027125E-02 -8.830077338E-01
 -1.784299508E-01 -1.000000000E-03 7.094963135E-02 -8.800000390E-01
 -1.302717395E-01 -1.000000000E-03 7.199484982E-02 -6.829848179E-01
 -1.845702532E-01 -1.000000000E-03 7.041145456E-02 -9.273027323E-01
 -9.312842357E-02 -1.000000000E-03 7.028042971E-02 -5.706613632E-01
 -1.167352496E-01 -1.000000000E-03 7.155616632E-02 -6.354540642E-01
 -2.032413743E-01 -1.000000000E-03 6.788128341E-02 -1.070588531E+00
 -6.025688279E-02 -1.000000000E-03 6.745891497E-02 -4.878313632E-01
 -7.343550646E-02 -1.000000000E-03 6.872427795E-02 -5.192576865E-01
 -7.925029451E-02 -1.000000000E-03 6.919475679E-02 -5.336982420E-01
 -1.613634125E-01 -1.000000000E-03 7.188654083E-02 -7.951519783E-01
 -1.620316169E-01 -1.000000000E-03 7.186815529E-02 -7.974923604E-01
 -1.622180439E-01 -1.000000000E-03 7.185974335E-02 -7.985053870E-01
 -1.231209120E-01 -1.000000000E-03 7.182858226E-02 -6.592938444E-01
 -1.242430738E-01 -1.000000000E-03 7.186313341E-02 -6.631447591E-01
 -5.618750181E-02 -1.000000000E-03 6.705644153E-02 -4.780771749E-01
 -4.100170924E-02 -1.000000000E-03 6.538163777E-02 -4.370939035E-01
 2.532854738E-01 -1.000000000E-03 9.154636678E-03 1.968121719E-02
 2.616836919E-01 -1.000000000E-03 7.099188404E-03 2.974181861E-02
 2.778173402E-01 -1.000000000E-03 3.136774679E-03 5.027607170E-02
 2.731091327E-01 -1.000000000E-03 4.304240534E-03 4.475056874E-02
 2.918486830E-01 -1.000000000E-03 -3.724380594E-04 6.693560077E-02
 2.472548474E-01 -1.000000000E-03 1.059708355E-02 1.223303792E-02
 -3.844528305E-02 -1.000000000E-03 6.507841199E-02 -4.316201790E-01
 -2.150977597E-02 -1.000000000E-03 6.297757537E-02 -4.024183948E-01
 -1.496986787E-03 -1.000000000E-03 6.023981748E-02 -3.640646643E-01
 1.388766508E-02 -1.000000000E-03 5.796180139E-02 -3.356385823E-01
 -8.159572869E-03 -1.000000000E-03 6.116551267E-02 -3.768555558E-01
 1.465415099E-02 -1.000000000E-03 5.784609308E-02 -3.342704540E-01
 3.208718480E-02 -1.000000000E-03 5.508826498E-02 -2.986778628E-01
 4.166167831E-02 -1.000000000E-03 5.349904882E-02 -2.824252716E-01
 5.420857359E-02 -1.000000000E-03 5.134951867E-02 -2.632464632E-01
 4.902114507E-02 -1.000000000E-03 5.226370962E-02 -2.712954098E-01
 6.926538567E-02 -1.000000000E-03 4.869552367E-02 -2.386702322E-01
 7.314841314E-02 -1.000000000E-03 4.797695387E-02 -2.318927434E-01
 8.752998752E-02 -1.000000000E-03 4.531474823E-02 -2.079185226E-01
 9.755061188E-02 -1.000000000E-03 4.337669246E-02 -1.920036529E-01
 1.045318954E-01 -1.000000000E-03 4.203660477E-02 -1.808588266E-01
 1.119342561E-01 -1.000000000E-03 4.057501268E-02 -1.702196710E-01
 1.215698210E-01 -1.000000000E-03 3.863513557E-02 -1.553258804E-01
 1.426655789E-01 -1.000000000E-03 3.428718696E-02 -1.211244970E-01
 1.436757073E-01 -1.000000000E-03 3.407468986E-02 -1.196478281E-01
 1.444854859E-01 -1.000000000E-03 3.390110362E-02 -1.185351977E-01
 1.304422562E-01 -1.000000000E-03 3.683164298E-02 -1.396752912E-01
 1.840081757E-01 -1.000000000E-03 2.530761504E-02 -6.527504742E-02
 1.803470189E-01 -1.000000000E-03 2.613139271E-02 -7.009699806E-02
 2.317260980E-01 -1.000000000E-03 1.432008644E-02 -3.908257922E-03
 1.897978772E-01 -1.000000000E-03 2.398579022E-02 -5.723558884E-02
 2.208529331E-01 -1.000000000E-03 1.686538088E-02 -1.605005659E-02
 2.095578585E-01 -1.000000000E-03 1.950618201E-02 -3.064567279E-02
 1.759065406E-01 -1.000000000E-03 2.710786141E-02 -7.615740243E-02
 1.632028521E-01 -1.000000000E-03 2.989948651E-02 -9.367872217E-02
 -2.179859803E-01 -1.000000000E-03 6.455430525E-02 -1.241490802E+00
 -2.157043669E-01 -1.000000000E-03 6.517361989E-02 -1.213597277E+00
 -2.104129248E-01 -1.000000000E-03 6.647086351E-02 -1.136066758E+00
 -2.130935459E-01 -1.000000000E-03 6.584031386E-02 -1.176655424E+00
 -2.232120630E-01 -1.000000000E-03 6.290253719E-02 -1.318785458E+00
 -2.234414281E-01 -1.000000000E-03 6.282435695E-02 -1.322753070E+00
 -2.237136989E-01 -1.000000000E-03 6.272315191E-02 -1.325782899E+00
 -2.296073253E-01 -1.000000000E-03 6.034725414E-02 -1.418782160E+00
 -2.286460820E-01 -1.000000000E-03 6.078909954E-02 -1.387147867E+00
 -2.332899032E-01 -1.000000000E-03 5.851067513E-02 -1.448373466E+00
 -2.338533933E-01 -1.000000000E-03 5.819789449E-02 -1.471313779E+00
 -2.311902637E-01 -1.000000000E-03 5.960661835E-02 -1.434904333E+00
 -2.319409532E-01 -1.000000000E-03 5.922964339E-02 -1.418578822E+00
 -2.377544970E-01 -1.000000000E-03 5.567226064E-02 -1.535125607E+00
 -2.063074305E-01 -1.000000000E-03 6.732972615E-02 -1.092213806E+00
 -2.081421084E-01 -1.000000000E-03 6.694735544E-02 -1.108594027E+00
 -2.054114065E-01 -1.000000000E-03 6.750135466E-02 -1.086283549E+00
 -2.206742662E-01 -1.000000000E-03 6.374425709E-02 -1.294529310E+00
 -2.207949582E-01 -1.000000000E-03 6.370690093E-02 -1.296517415E+00
 -2.268515391E-01 -1.000000000E-03 6.152079703E-02 -1.347750510E+00
 -2.257623615E-01 -1.000000000E-03 6.197138067E-02 -1.331768554E+00
 -2.379253301E-01 -1.000000000E-03 5.554303378E-02 -1.539695029E+00
 -2.389507957E-01 -1.000000000E-03 5.474316226E-02 -1.548152741E+00
 -2.371821800E-01 -1.000000000E-03 5.607211325E-02 -1.516929894E+00
 -2.361936294E-01 -1.000000000E-03 5.676454315E-02 -1.483063088E+00
 -2.348930686E-01 -1.000000000E-03 5.758815952E-02 -1.494795774E+00
 -2.350351288E-01 -1.000000000E-03 5.749976444E-02 -1.493229815E+00
 -2.414210071E-01 -1.000000000E-03 5.245832635E-02 -1.479214944E+00
 -2.406259388E-01 -1.000000000E-03 5.325934732E-02 -1.472372725E+00
 -2.409911998E-01 -1.000000000E-03 5.289438222E-02 -1.498817326E+00
 -2.392363977E-01 -1.000000000E-03 5.450492384E-02 -1.542025968E+00
 -2.396474165E-01 -1.000000000E-03 5.415444686E-02 -1.523564180E+00
 -2.399107750E-01 -1.000000000E-03 5.391407920E-02 -1.511958458E+00
 7.386038535E-01 -1.000000000E-03 -1.302354872E-01 4.321642932E-01
 7.386002760E-01 -1.000000000E-03 -1.302343093E-01 4.323282223E-01
 7.386038705E-01 -1.000000000E-03 -1.302354928E-01 4.321455161E-01
 7.386058150E-01 -1.000000000E-03 -1.302361330E-01 4.307955070E-01
 7.386033077E-01 -1.000000000E-03 -1.302360554E-01 4.312107597E-01
 7.386032867E-01 -1.000000000E-03 -1.302360548E-01 4.312257655E-01
 7.385986008E-01 -1.000000000E-03 -1.302359097E-01 4.303373489E-01
 7.385985541E-01 -1.000000000E-03 -1.302359083E-01 4.303528957E-01
 7.385689781E-01 -1.000000000E-03 -1.302349928E-01 4.268835642E-01
 7.385885961E-01 -1.000000000E-03 -1.302356001E-01 4.285087760E-01
 7.385687093E-01 -1.000000000E-03 -1.302349848E-01 4.269275214E-01
 7.385230490E-01 -1.000000000E-03 -1.302335713E-01 4.236250233E-01
 7.385218439E-01 -1.000000000E-03 -1.302335350E-01 4.236467281E-01
 7.383163923E-01 -1.000000000E-03 -1.302271740E-01 4.241081945E-01
 7.383130452E-01 -1.000000000E-03 -1.302270728E-01 4.241078174E-01
 7.382992949E-01 -1.000000000E-03 -1.302266612E-01 4.242584252E-01
 7.378338197E-01 -1.000000000E-03 -1.302122405E-01 4.241074848E-01
 7.371252468E-01 -1.000000000E-03 -1.301902619E-01 4.244056737E-01
 7.370978337E-01 -1.000000000E-03 -1.301894077E-01 4.242847191E-01
 7.370397376E-01 -1.000000000E-03 -1.301876520E-01 4.243099769E-01
 7.343365883E-01 -1.000000000E-03 -1.301033446E-01 4.294063052E-01
 7.342021810E-01 -1.000000000E-03 -1.300991723E-01 4.292291965E-01
 7.385816948E-01 -1.000000000E-03 -1.302281912E-01 4.277153365E-01
 7.386001380E-01 -1.000000000E-03 -1.302342637E-01 4.323490170E-01
 7.385813109E-01 -1.000000000E-03 -1.302280645E-01 4.277126178E-01
 7.385794688E-01 -1.000000000E-03 -1.302274564E-01 4.276928073E-01
 7.386002481E-01 -1.000000000E-03 -1.302343001E-01 4.323050654E-01
 2.969888678E-01 -1.000000000E-03 -1.656572329E-03 7.302916474E-02
 3.158235562E-01 -1.000000000E-03 -6.451256338E-03 9.124819690E-02
 3.197451708E-01 -1.000000000E-03 -7.454210857E-03 9.517399942E-02
 3.186194751E-01 -1.000000000E-03 -7.162740615E-03 9.392624388E-02
 3.374772595E-01 -1.000000000E-03 -1.204848817E-02 1.150427163E-01
 3.511954128E-01 -1.000000000E-03 -1.563517696E-02 1.293778925E-01
 3.654618584E-01 -1.000000000E-03 -1.942347282E-02 1.430374552E-01
 3.978053178E-01 -1.000000000E-03 -2.811290064E-02 1.729240929E-01
 3.833941079E-01 -1.000000000E-03 -2.420288703E-02 1.599652255E-01
 4.289084093E-01 -1.000000000E-03 -3.664253808E-02 2.016420757E-01
 4.510017584E-01 -1.000000000E-03 -4.280610499E-02 2.206222857E-01
 4.381148397E-01 -1.000000000E-03 -3.918475329E-02 2.101510935E-01
 4.784673308E-01 -1.000000000E-03 -5.056632361E-02 2.436494154E-01
 5.048663764E-01 -1.000000000E-03 -5.812633098E-02 2.671421931E-01
 5.424109095E-01 -1.000000000E-03 -6.909539323E-02 2.988599756E-01
 5.551618553E-01 -1.000000000E-03 -7.286815808E-02 3.094590703E-01
 5.858844619E-01 -1.000000000E-03 -8.210008687E-02 3.340018426E-01
 5.178347185E-01 -1.000000000E-03 -6.190141772E-02 2.781157846E-01
 5.950718712E-01 -1.000000000E-03 -8.485260262E-02 3.413492183E-01
 5.995994239E-01 -1.000000000E-03 -8.622432211E-02 3.449297921E-01
 6.227345083E-01 -1.000000000E-03 -9.331199361E-02 3.628221804E-01
 6.526537565E-01 -1.000000000E-03 -1.026061508E-01 3.845054888E-01
 6.535129122E-01 -1.000000000E-03 -1.028721420E-01 3.851371313E-01
 6.540516594E-01 -1.000000000E-03 -1.030410058E-01 3.855072871E-01
 6.809641452E-01 -1.000000000E-03 -1.115485232E-01 4.025944937E-01
 6.953388987E-01 -1.000000000E-03 -1.161605119E-01 4.108476315E-01
 7.074266206E-01 -1.000000000E-03 -1.200444691E-01 4.181510227E-01
 7.123766871E-01 -1.000000000E-03 -1.216535429E-01 4.213594646E-01
 7.245415080E-01 -1.000000000E-03 -1.256146040E-01 4.291023850E-01
 7.311716027E-01 -1.000000000E-03 -1.277904226E-01 4.320161851E-01
 7.334137106E-01 -1.000000000E-03 -1.285275803E-01 4.334069787E-01
 7.364553721E-01 -1.000000000E-03 -1.295279943E-01 4.353402961E-01
 1.953167887E-02 -1.000000000E-03 -6.428842987E-02 4.297216581E-01
 3.162533999E-02 -1.000000000E-03 -6.649786346E-02 4.230913423E-01
 3.172068451E-02 -1.000000000E-03 -6.651517547E-02 4.230198377E-01
 -1.438677469E-02 -1.000000000E-03 -5.767458054E-02 4.464556120E-01
 -2.443780852E-02 -1.000000000E-03 -5.558461546E-02 4.539793035E-01
 4.579065173E-02 -1.000000000E-03 -6.899370826E-02 4.133517908E-01
 6.035090295E-02 -1.000000000E-03 -7.146268790E-02 4.074437656E-01
 6.044677502E-02 -1.000000000E-03 -7.147885760E-02 4.073841906E-01
 4.569391357E-02 -1.000000000E-03 -6.897698164E-02 4.134152697E-01
 1.943329890E-02 -1.000000000E-03 -6.427010637E-02 4.297416431E-01
 6.831776083E-03 -1.000000000E-03 -6.188747305E-02 4.342417039E-01
 3.181088901E-02 -1.000000000E-03 -6.653116856E-02 4.229949637E-01
 6.757528303E-03 -1.000000000E-03 -6.187327068E-02 4.342923525E-01
 -4.428450643E-03 -1.000000000E-03 -5.968528597E-02 4.384285561E-01
 6.060002203E-02 -1.000000000E-03 -7.150406498E-02 4.073461509E-01
 -2.450090577E-02 -1.000000000E-03 -5.557134777E-02 4.539894619E-01
 -1.431423153E-02 -1.000000000E-03 -5.768943523E-02 4.463837445E-01
 -4.589369783E-03 -1.000000000E-03 -5.965341500E-02 4.385073492E-01
 -4.513079307E-03 -1.000000000E-03 -5.966870176E-02 4.384723969E-01
 -2.330787191E-01 -1.000000000E-03 1.875544084E-02 1.002903057E+00
 -2.313937945E-01 -1.000000000E-03 1.734483045E-02 9.939682574E-01
 -2.338696025E-01 -1.000000000E-03 1.944795333E-02 1.008259916E+00
 -2.311699891E-01 -1.000000000E-03 1.715561837E-02 9.940685306E-01
 -2.288388691E-01 -1.000000000E-03 1.532964920E-02 9.610614624E-01
 -2.285420424E-01 -1.000000000E-03 1.510511795E-02 9.596151939E-01
 -2.286779762E-01 -1.000000000E-03 1.520332166E-02 9.603907058E-01
 -2.340425283E-01 -1.000000000E-03 1.960289536E-02 1.009142851E+00
 -2.342620905E-01 -1.000000000E-03 1.980272575E-02 1.009754868E+00
 -2.415506847E-01 -1.000000000E-03 2.770376804E-02 9.341454907E-01
 -2.408227221E-01 -1.000000000E-03 2.674082941E-02 9.608348566E-01
 -2.402201639E-01 -1.000000000E-03 2.598063023E-02 9.780429188E-01
 -2.351060392E-01 -1.000000000E-03 2.057266223E-02 1.007411404E+00
 -2.353279407E-01 -1.000000000E-03 2.078134861E-02 1.007326708E+00
 -2.374654429E-01 -1.000000000E-03 2.288872018E-02 1.005736028E+00
 -2.385007212E-01 -1.000000000E-03 2.398388334E-02 9.962124724E-01
 -2.388394087E-01 -1.000000000E-03 2.436443434E-02 9.920660997E-01
 -2.371366898E-01 -1.000000000E-03 2.254525423E-02 1.007043283E+00
 -2.357271021E-01 -1.000000000E-03 2.115526227E-02 1.009136576E+00
 -2.360065644E-01 -1.000000000E-03 2.142452938E-02 1.009136792E+00
 -2.365688371E-01 -1.000000000E-03 2.197943316E-02 1.011006286E+00
 -2.362848291E-01 -1.000000000E-03 2.169644302E-02 1.010607755E+00
 7.382820460E-01 -1.000000000E-03 -1.301295319E-01 4.309481248E-01
 7.367596121E-01 -1.000000000E-03 -1.296283509E-01 4.352927770E-01
 7.382456895E-01 -1.000000000E-03 -1.301175256E-01 4.308726781E-01
 6.696784628E-01 -1.000000000E-03 -1.277351121E-01 3.960132870E-01
 6.867768377E-01 -1.000000000E-03 -1.284306552E-01 4.047256569E-01
 6.693808674E-01 -1.000000000E-03 -1.277227625E-01 3.958814788E-01
 6.576062411E-01 -1.000000000E-03 -1.272173974E-01 3.928952479E-01
 6.872333768E-01 -1.000000000E-03 -1.284483579E-01 4.049466658E-01
 7.053190024E-01 -1.000000000E-03 -1.291305311E-01 4.095498860E-01
 7.055805574E-01 -1.000000000E-03 -1.291400662E-01 4.096345156E-01
 7.166957843E-01 -1.000000000E-03 -1.295283923E-01 4.180221488E-01
 7.168571575E-01 -1.000000000E-03 -1.295339541E-01 4.181514972E-01
 7.170417323E-01 -1.000000000E-03 -1.295400718E-01 4.182981657E-01
 7.257722071E-01 -1.000000000E-03 -1.298318166E-01 4.240796236E-01
 7.259801911E-01 -1.000000000E-03 -1.298384832E-01 4.241052425E-01
 7.308489779E-01 -1.000000000E-03 -1.299936088E-01 4.284220653E-01
 -1.702546914E-01 -1.000000000E-03 -1.472311116E-02 6.581160180E-01
 -1.647064322E-01 -1.000000000E-03 -1.683798080E-02 6.520488124E-01
 -1.599397549E-01 -1.000000000E-03 -1.859669198E-02 6.371359787E-01
 -1.702174822E-01 -1.000000000E-03 -1.473729294E-02 6.579899395E-01
 -1.702927470E-01 -1.000000000E-03 -1.470826281E-02 6.583205160E-01
 -1.647614274E-01 -1.000000000E-03 -1.681750447E-02 6.523313998E-01
 -1.851320416E-01 -1.000000000E-03 -8.653626384E-03 6.983963905E-01
 -1.896582416E-01 -1.000000000E-03 -6.667068224E-03 7.378493822E-01
 -1.755189485E-01 -1.000000000E-03 -1.264439924E-02 6.885782872E-01
 -1.753458209E-01 -1.000000000E-03 -1.271553979E-02 6.881894451E-01
 -1.753941709E-01 -1.000000000E-03 -1.269613161E-02 6.882874036E-01
 -1.897944624E-01 -1.000000000E-03 -6.607369071E-03 7.383786179E-01
 -1.957309787E-01 -1.000000000E-03 -3.885736875E-03 7.576791536E-01
 -1.958159400E-01 -1.000000000E-03 -3.846506762E-03 7.580682338E-01
 -1.958770353E-01 -1.000000000E-03 -3.816924451E-03 7.583867712E-01
 -2.018161305E-01 -1.000000000E-03 -9.359665355E-04 7.916167493E-01
 -2.070383244E-01 -1.000000000E-03 1.745190540E-03 8.049878986E-01
 -2.018704634E-01 -1.000000000E-03 -9.081734981E-04 7.919411580E-01
 -2.163472823E-01 -1.000000000E-03 6.965164294E-03 8.938544978E-01
 -2.122471065E-01 -1.000000000E-03 4.586349034E-03 8.572877471E-01
 -1.597664465E-01 -1.000000000E-03 -1.865925342E-02 6.367130963E-01
 -2.208376139E-01 -1.000000000E-03 9.745901304E-03 9.072344194E-01
 -2.164699824E-01 -1.000000000E-03 7.040673427E-03 8.940931339E-01
 -2.210028742E-01 -1.000000000E-03 9.855839269E-03 9.093326035E-01
 -2.251375717E-01 -1.000000000E-03 1.262667200E-02 9.555050223E-01
 -2.121445316E-01 -1.000000000E-03 4.527651557E-03 8.567595551E-01
 -2.071120219E-01 -1.000000000E-03 1.784926973E-03 8.052948484E-01
 6.572931772E-01 -1.000000000E-03 -1.272034898E-01 3.928200857E-01
 6.574485535E-01 -1.000000000E-03 -1.272105084E-01 3.928403180E-01
 6.187805177E-01 -1.000000000E-03 -1.253913750E-01 3.831420458E-01
 6.190337260E-01 -1.000000000E-03 -1.254040283E-01 3.831792771E-01
 6.373747190E-01 -1.000000000E-03 -1.262941502E-01 3.853642366E-01
 6.377333295E-01 -1.000000000E-03 -1.263112108E-01 3.855091671E-01
 5.861209697E-01 -1.000000000E-03 -1.236809184E-01 3.729422258E-01
 5.858689806E-01 -1.000000000E-03 -1.236669889E-01 3.728760808E-01
 6.026601421E-01 -1.000000000E-03 -1.245667096E-01 3.780658452E-01
 6.023483163E-01 -1.000000000E-03 -1.245503211E-01 3.780164661E-01
 5.241038164E-01 -1.000000000E-03 -1.200093119E-01 3.642231137E-01
 5.243091493E-01 -1.000000000E-03 -1.200222244E-01 3.642674119E-01
 5.422813097E-01 -1.000000000E-03 -1.211421530E-01 3.668510682E-01
 5.420836238E-01 -1.000000000E-03 -1.211300668E-01 3.668457233E-01
 5.568969938E-01 -1.000000000E-03 -1.220188238E-01 3.689808336E-01
 5.570642546E-01 -1.000000000E-03 -1.220287808E-01 3.690326098E-01
 5.695725549E-01 -1.000000000E-03 -1.227548806E-01 3.701939781E-01
 5.693549346E-01 -1.000000000E-03 -1.227423351E-01 3.701542612E-01
 5.070626663E-01 -1.000000000E-03 -1.189050938E-01 3.633515842E-01
 5.068883298E-01 -1.000000000E-03 -1.188938002E-01 3.633334979E-01
 5.067363240E-01 -1.000000000E-03 -1.188837077E-01 3.633044109E-01
 3.523180852E-01 -1.000000000E-03 -1.069584368E-01 3.516534698E-01
 3.702733048E-01 -1.000000000E-03 -1.085325351E-01 3.531701542E-01
 3.407617167E-01 -1.000000000E-03 -1.059193935E-01 3.535309540E-01
 3.521836805E-01 -1.000000000E-03 -1.069465170E-01 3.516666276E-01
 3.404961806E-01 -1.000000000E-03 -1.058951755E-01 3.534956150E-01
 3.246615944E-01 -1.000000000E-03 -1.044308190E-01 3.527386218E-01
 3.244487493E-01 -1.000000000E-03 -1.044108542E-01 3.527766068E-01
 3.103304231E-01 -1.000000000E-03 -1.030670853E-01 3.559311097E-01
 3.101273520E-01 -1.000000000E-03 -1.030476223E-01 3.559585943E-01
 3.097243983E-01 -1.000000000E-03 -1.030078543E-01 3.559726770E-01
 2.955000527E-01 -1.000000000E-03 -1.016155120E-01 3.568956559E-01
 2.746441582E-01 -1.000000000E-03 -9.950297650E-02 3.575259158E-01
 2.744043302E-01 -1.000000000E-03 -9.947852621E-02 3.575484272E-01
 2.742439013E-01 -1.000000000E-03 -9.946182904E-02 3.575626761E-01
 2.538767283E-01 -1.000000000E-03 -9.731196210E-02 3.619892094E-01
 2.537596458E-01 -1.000000000E-03 -9.729948447E-02 3.619770223E-01
 2.536736626E-01 -1.000000000E-03 -9.729021095E-02 3.619930540E-01
 2.400207754E-01 -1.000000000E-03 -9.579991923E-02 3.597927038E-01
 2.398875950E-01 -1.000000000E-03 -9.578519791E-02 3.598245966E-01
 2.221801168E-01 -1.000000000E-03 -9.378945797E-02 3.641566399E-01
 2.128550081E-01 -1.000000000E-03 -9.271042254E-02 3.661746321E-01
 2.130149679E-01 -1.000000000E-03 -9.272921242E-02 3.661391544E-01
 2.219541953E-01 -1.000000000E-03 -9.376359584E-02 3.641882748E-01
 2.220755561E-01 -1.000000000E-03 -9.377759545E-02 3.641521881E-01
 2.018958882E-01 -1.000000000E-03 -9.141424221E-02 3.662945344E-01
 2.017428057E-01 -1.000000000E-03 -9.139595959E-02 3.662935638E-01
 1.851065068E-01 -1.000000000E-03 -8.936866196E-02 3.733095155E-01
 1.727761525E-01 -1.000000000E-03 -8.781743015E-02 3.730723567E-01
 1.726680675E-01 -1.000000000E-03 -8.780369662E-02 3.731055295E-01
 1.729784953E-01 -1.000000000E-03 -8.784283070E-02 3.730078330E-01
 1.933307008E-01 -1.000000000E-03 -9.037714128E-02 3.669835391E-01
 1.931053105E-01 -1.000000000E-03 -9.034959622E-02 3.669946602E-01
 1.646002105E-01 -1.000000000E-03 -8.676397543E-02 3.749058506E-01
 1.644244424E-01 -1.000000000E-03 -8.674115367E-02 3.750378969E-01
 1.386847580E-01 -1.000000000E-03 -8.330372822E-02 3.822791483E-01
 1.385792703E-01 -1.000000000E-03 -8.328911087E-02 3.822843335E-01
 1.388031963E-01 -1.000000000E-03 -8.331985532E-02 3.822522041E-01
 1.462595992E-01 -1.000000000E-03 -8.433562200E-02 3.841514465E-01
 1.540959123E-01 -1.000000000E-03 -8.538682708E-02 3.759985870E-01
 1.538653774E-01 -1.000000000E-03 -8.535619714E-02 3.759540229E-01
 8.136438194E-02 -1.000000000E-03 -7.486565297E-02 3.979647142E-01
 8.155206709E-02 -1.000000000E-03 -7.489569396E-02 3.979007069E-01
 8.168707893E-02 -1.000000000E-03 -7.491672870E-02 3.978278470E-01
 6.943890090E-02 -1.000000000E-03 -7.295665014E-02 4.042224514E-01
 9.393538845E-02 -1.000000000E-03 -7.681722059E-02 3.961966287E-01
 9.369719370E-02 -1.000000000E-03 -7.678109844E-02 3.962333211E-01
 1.125882669E-01 -1.000000000E-03 -7.960564119E-02 3.893011744E-01
 1.128399041E-01 -1.000000000E-03 -7.964281092E-02 3.891696434E-01
 1.210958989E-01 -1.000000000E-03 -8.083360736E-02 3.811204292E-01
 1.209723611E-01 -1.000000000E-03 -8.081578373E-02 3.811735070E-01
 1.312352162E-01 -1.000000000E-03 -8.226956602E-02 3.848296174E-01
 1.310889192E-01 -1.000000000E-03 -8.224890947E-02 3.848291462E-01
 4.467769321E-01 -1.000000000E-03 -1.146707922E-01 3.555463516E-01
 4.228688526E-01 -1.000000000E-03 -1.128479453E-01 3.548214506E-01
 4.471885652E-01 -1.000000000E-03 -1.147015651E-01 3.555359039E-01
 4.470478891E-01 -1.000000000E-03 -1.146912192E-01 3.555312086E-01
 4.226091925E-01 -1.000000000E-03 -1.128277588E-01 3.547891444E-01
 4.708959884E-01 -1.000000000E-03 -1.164276506E-01 3.574099782E-01
 4.710736915E-01 -1.000000000E-03 -1.164403527E-01 3.574245995E-01
 4.077394476E-01 -1.000000000E-03 -1.116498105E-01 3.539332663E-01
 4.075904919E-01 -1.000000000E-03 -1.116378195E-01 3.539329320E-01
 3.941613899E-01 -1.000000000E-03 -1.105445998E-01 3.528510137E-01
 4.868890064E-01 -1.000000000E-03 -1.175463906E-01 3.578944731E-01
 4.870939919E-01 -1.000000000E-03 -1.175604750E-01 3.579277827E-01
 3.938663902E-01 -1.000000000E-03 -1.105200299E-01 3.528658104E-01
 3.705816785E-01 -1.000000000E-03 -1.085591142E-01 3.531796980E-01
 20 5
 5 6
 6 13
 13 12
 12 11
 11 10
 10 9
 9 7
 7 8
 8 15
 15 14
 14 16
 16 2
 2 1
 1 3
 3 4
 4 314
 314 296
 296 295
 295 299
 299 297
 297 294
 294 298
 298 303
 303 304
 304 302
 302 300
 300 301
 301 305
 305 306
 306 307
 307 308
 308 309
 309 311
 311 310
 310 320
 320 319
 319 313
 313 312
 312 316
 316 315
 315 317
 317 318
 318 261
 261 262
 262 260
 260 259
 259 257
 257 256
 256 258
 258 263
 263 264
 264 268
 268 269
 269 274
 274 275
 275 277
 277 276
 276 273
 273 270
 270 271
 271 272
 272 267
 267 266
 266 265
 265 44
 44 42
 42 43
 43 37
 37 39
 39 36
 36 38
 38 40
 40 41
 41 76
 76 77
 77 75
 75 74
 74 71
 71 70
 70 73
 73 72
 72 68
 68 67
 67 69
 69 62
 62 60
 60 61
 61 63
 63 64
 64 65
 65 66
 66 57
 57 58
 58 59
 59 55
 55 56
 56 54
 54 51
 51 53
 53 52
 52 48
 48 49
 49 50
 50 47
 47 45
 45 46
 46 172
 172 174
 174 173
 173 177
 177 176
 176 175
 175 167
 167 166
 166 158
 158 168
 168 169
 169 171
 171 170
 170 155
 155 154
 154 157
 157 156
 156 152
 152 153
 153 164
 164 165
 165 151
 151 150
 150 149
 149 163
 163 162
 162 145
 145 146
 146 148
 148 147
 147 160
 160 159
 159 161
 161 99
 99 86
 86 85
 85 88
 88 87
 87 92
 92 96
 96 93
 93 94
 94 90
 90 89
 89 91
 91 105
 105 104
 104 103
 103 80
 80 84
 84 83
 83 82
 82 81
 81 95
 95 107
 107 106
 106 98
 98 79
 79 78
 78 97
 97 102
 102 101
 101 100
 100 108
 108 109
 109 116
 116 117
 117 120
 120 118
 118 119
 119 121
 121 122
 122 123
 123 125
 125 124
 124 126
 126 127
 127 128
 128 129
 129 130
 130 131
 131 132
 132 136
 136 133
 133 134
 134 135
 135 144
 144 143
 143 138
 138 137
 137 140
 140 142
 142 141
 141 139
 139 115
 115 110
 110 111
 111 113
 113 112
 112 114
 114 205
 205 206
 206 208
 208 207
 207 209
 209 210
 210 211
 211 213
 213 212
 212 214
 214 216
 216 215
 215 217
 217 218
 218 222
 222 219
 219 220
 220 221
 221 223
 223 224
 224 225
 225 226
 226 227
 227 228
 228 229
 229 230
 230 231
 231 232
 232 233
 233 234
 234 235
 235 236
 236 279
 279 280
 280 278