TITLE     = "Surface mesh and solution"
VARIABLES = "x" "y" "z" "cfx" "Cp"
DATASETAUXDATA alpha_deg="  0.0000000E+00"
DATASETAUXDATA beta_deg="  0.0000000E+00"
DATASETAUXDATA bref="  0.7500000"
DATASETAUXDATA cref="   1.000000"
DATASETAUXDATA itranflg="           0"
DATASETAUXDATA ivisc="           2"
DATASETAUXDATA mach="  0.2000000"
DATASETAUXDATA reue_mil="   4.600000"
DATASETAUXDATA sref="  0.7500000"
DATASETAUXDATA tinf_r="   521.0000"
DATASETAUXDATA xmc="  0.0000000E+00"
DATASETAUXDATA ymc="  0.0000000E+00"
DATASETAUXDATA zmc="  0.0000000E+00"
ZONE T="COFFE, HM Y=-0.001"
 STRANDID=0, SOLUTIONTIME=0
 Nodes=167, Elements=162, ZONETYPE=FELineSeg
 DATAPACKING=POINT
 DT=(DOUBLE DOUBLE DOUBLE DOUBLE DOUBLE )
7.38605797E-01 -1.00000005E-03 -1.30236134E-01 1.40058971E-03 4.30264592E-01
7.37656057E-01 -9.99999582E-04 -1.29923120E-01 3.59660276E-04 4.26478595E-01
7.36758709E-01 -9.99999233E-04 -1.29626840E-01 2.58360058E-04 4.34326470E-01
7.35652447E-01 -9.99999931E-04 -1.29262134E-01 7.19445670E-05 4.37569350E-01
7.37606287E-01 -9.99999931E-04 -1.30205780E-01 1.10283855E-03 4.37510967E-01
7.35497415E-01 -9.99999931E-04 -1.30141243E-01 4.71984851E-04 4.41226155E-01
7.33968794E-01 -9.99989221E-04 -1.28707737E-01 -1.95607907E-04 4.36635941E-01
7.27810502E-01 -9.99999116E-04 -1.26685113E-01 -2.83822708E-04 4.24721628E-01
7.33725667E-01 -9.99990385E-04 -1.30086228E-01 4.40888252E-04 4.39956427E-01
7.28851616E-01 -9.99986776E-04 -1.29932255E-01 4.46114864E-04 4.37710553E-01
7.24976420E-01 -1.00000238E-03 -1.25756890E-01 -2.83635512E-04 4.21400100E-01
7.26302147E-01 -9.99998883E-04 -1.29850343E-01 4.63704579E-04 4.37658876E-01
7.19414830E-01 -9.99927637E-04 -1.23944774E-01 -2.35686020E-04 4.13859367E-01
7.10588455E-01 -9.99968848E-04 -1.21079512E-01 -2.33212530E-04 4.06188577E-01
7.00673997E-01 -9.99651034E-04 -1.17870636E-01 -2.33945437E-04 3.99664581E-01
7.21301794E-01 -9.99904471E-04 -1.29683122E-01 4.66279860E-04 4.35109377E-01
7.10651159E-01 -9.99962096E-04 -1.29311815E-01 4.42354009E-04 4.27801609E-01
7.01694191E-01 -9.99814947E-04 -1.28990009E-01 4.81696072E-04 4.21906441E-01
6.82003319E-01 -9.99929733E-04 -1.11888163E-01 -2.61339446E-04 3.85567427E-01
6.81887150E-01 -9.99998418E-04 -1.28224507E-01 5.65645983E-04 4.11395073E-01
6.71255410E-01 -9.99911921E-04 -1.27790108E-01 6.05757756E-04 4.06872988E-01
6.46454513E-01 -1.00047002E-03 -1.00673042E-01 -3.14894976E-04 3.61249298E-01
6.32365227E-01 -9.99934739E-04 -9.63003486E-02 -3.29439848E-04 3.52045953E-01
6.21221125E-01 -9.99917276E-04 -9.28552076E-02 -3.42266023E-04 3.44463974E-01
6.25555575E-01 -9.99933109E-04 -1.25714630E-01 6.79450401E-04 3.89757723E-01
6.14115596E-01 -9.99889686E-04 -1.25144586E-01 7.07866973E-04 3.86384100E-01
5.58613420E-01 -9.99884796E-04 -7.39047453E-02 -3.17613129E-04 3.02335083E-01
5.52426755E-01 -9.99959768E-04 -1.21740602E-01 7.47176819E-04 3.73563021E-01
5.40521264E-01 -1.00006349E-03 -1.21032119E-01 7.73579406E-04 3.70972395E-01
-2.45157495E-01 -9.99980257E-04 3.41467261E-02 -2.00299523E-03 5.73717058E-01
-2.44716689E-01 -1.00002089E-03 3.30798775E-02 -1.77376228E-03 6.60063505E-01
-2.44939670E-01 -9.99969896E-04 3.36121693E-02 -1.88130850E-03 6.17618859E-01
-2.45447323E-01 -1.00002694E-03 3.49447206E-02 -1.84905273E-03 5.04558980E-01
-2.45787278E-01 -9.99974785E-04 3.60484198E-02 -1.84275955E-03 3.93629283E-01
-2.45997116E-01 -1.00003486E-03 3.68713289E-02 -1.55656901E-03 3.02900672E-01
-2.46219099E-01 -9.99968266E-04 3.80051583E-02 -1.40462653E-03 1.69413820E-01
-2.46111676E-01 -9.99950571E-04 3.74375433E-02 -1.47733453E-03 2.37059891E-01
-2.45242804E-01 -1.00004801E-03 4.66965102E-02 5.05366456E-03 -1.03623581E+00
-2.45006621E-01 -9.99939162E-04 4.72243354E-02 5.20313065E-03 -1.09366012E+00
-2.45992750E-01 -1.00010133E-03 4.43905853E-02 2.62137782E-03 -7.06343114E-01
-2.45544255E-01 -9.99973970E-04 4.59035039E-02 4.05634101E-03 -9.07135606E-01
-2.45828137E-01 -1.00003381E-03 4.50154319E-02 3.06978310E-03 -8.05540323E-01
-2.45718554E-01 -9.99952434E-04 4.53637205E-02 3.54429940E-03 -8.43898714E-01
-2.46335760E-01 -1.00004382E-03 3.88448462E-02 -8.86647322E-04 6.24234267E-02
-2.46422932E-01 -9.99963726E-04 3.99976186E-02 -5.21143258E-04 -7.94978887E-02
-2.46436909E-01 -1.00004592E-03 4.08458896E-02 2.09870603E-04 -1.92896336E-01
-2.46339947E-01 -1.00010308E-03 4.24209274E-02 1.18092273E-03 -4.17714208E-01
-2.46403232E-01 -1.00000587E-03 4.17027250E-02 7.10325839E-04 -3.18814218E-01
-2.46201932E-01 -1.00000005E-03 4.34120446E-02 2.04340485E-03 -5.68389654E-01
-2.44358301E-01 -9.99984448E-04 3.23098414E-02 -1.90780556E-03 7.12821960E-01
-2.43826449E-01 -1.00001600E-03 3.12739238E-02 -1.63362769E-03 7.78360069E-01
-2.44096279E-01 -9.99976764E-04 3.17936242E-02 -1.77240488E-03 7.46522784E-01
-2.43402645E-01 -9.99986427E-04 3.05203330E-02 -1.65449374E-03 8.20107102E-01
-2.42790639E-01 -9.99987009E-04 2.95153819E-02 -1.48434541E-03 8.64258647E-01
-2.43099779E-01 -9.99981421E-04 3.00191268E-02 -1.55043509E-03 8.42617929E-01
-2.42280394E-01 -9.99988755E-04 2.87383776E-02 -1.37706171E-03 8.96953940E-01
-2.41529271E-01 -9.99965123E-04 2.76698191E-02 -1.14150089E-03 9.33735609E-01
-2.41935983E-01 -9.99984797E-04 2.82434244E-02 -1.26827473E-03 9.15158033E-01
-2.40735263E-01 -9.99999349E-04 2.66194940E-02 -8.98820581E-04 9.64661121E-01
-2.40068108E-01 -1.00001146E-03 2.57919133E-02 -7.26226543E-04 9.76705074E-01
-2.39272624E-01 -9.99999349E-04 2.48557329E-02 -6.11199590E-04 9.93602693E-01
-2.37974808E-01 -1.00006699E-03 2.34207753E-02 -2.99090170E-04 1.01044035E+00
-2.38721400E-01 -1.00000494E-03 2.42267102E-02 -5.27060824E-04 1.00547993E+00
-2.36532345E-01 -9.99997486E-04 2.19399817E-02 5.80851265E-05 1.01344919E+00
-2.35320628E-01 -1.00002438E-03 2.07773708E-02 2.02096271E-04 1.01073205E+00
-2.33852893E-01 -1.00000820E-03 1.94399171E-02 3.70213529E-04 1.00605905E+00
-2.32877359E-01 -9.99985612E-04 1.85811743E-02 4.92681516E-04 1.00113606E+00
-2.29342908E-01 -9.99933342E-04 1.57195870E-02 6.85699808E-04 9.72789228E-01
-2.27318093E-01 -1.00005243E-03 1.41998464E-02 7.79594877E-04 9.55715179E-01
-2.31645480E-01 -1.00011623E-03 1.75523292E-02 5.60020213E-04 9.88564491E-01
-2.32877359E-01 -9.99985612E-04 1.85811743E-02 4.92681516E-04 1.00113606E+00
-2.24449083E-01 -1.00002484E-03 1.21614635E-02 8.35562940E-04 9.32893872E-01
-2.20678061E-01 -1.00017583E-03 9.65950079E-03 9.25237953E-04 9.06197071E-01
-2.22745255E-01 -9.99943935E-04 1.09980470E-02 8.85373738E-04 9.22715664E-01
-2.16635957E-01 -9.99802141E-04 7.15503702E-03 1.01556256E-03 8.76523674E-01
-2.12936759E-01 -1.00027211E-03 4.98024747E-03 1.05778140E-03 8.52049768E-01
-2.08576977E-01 -1.00021507E-03 2.56822794E-03 1.07670052E-03 8.26852024E-01
-2.01829582E-01 -9.98986070E-04 -9.26689594E-04 1.20117597E-03 7.90791333E-01
-1.94744170E-01 -9.99640208E-04 -4.33218805E-03 1.26721652E-03 7.55382717E-01
-1.88165277E-01 -1.00027537E-03 -7.29914289E-03 1.32843247E-03 7.28629768E-01
-1.78456321E-01 -1.00028992E-03 -1.14160022E-02 1.45271968E-03 6.95105374E-01
-1.65061206E-01 -9.99691780E-04 -1.66551005E-02 1.55498518E-03 6.54728055E-01
-1.54128253E-01 -1.00056874E-03 -2.06548125E-02 1.60589605E-03 6.26688898E-01
-1.34271130E-01 -1.00119528E-03 -2.72791497E-02 1.64079678E-03 5.84761560E-01
-1.45917699E-01 -9.97698866E-04 -2.34572459E-02 1.61862292E-03 6.08127296E-01
-1.24355793E-01 -9.97974887E-04 -3.03526204E-02 1.68195693E-03 5.68140209E-01
-1.08541250E-01 -1.00768439E-03 -3.49802636E-02 1.69581885E-03 5.43932796E-01
2.54258275E-01 -9.99859069E-04 -9.73483026E-02 1.08971656E-03 3.63240212E-01
2.72354931E-01 -1.00002065E-03 -9.92473662E-02 1.05911156E-03 3.61532480E-01
2.19954908E-01 -9.99803073E-04 -9.35281739E-02 1.20380800E-03 3.68498772E-01
1.99414909E-01 -9.99794807E-04 -9.10854787E-02 1.19769480E-03 3.71968359E-01
1.58130735E-01 -1.00125733E-03 -8.58863592E-02 1.25381188E-03 3.80509406E-01
1.31289810E-01 -1.00009178E-03 -8.22412744E-02 1.25507312E-03 3.87166649E-01
-4.86145988E-02 -9.98097123E-04 -5.02094924E-02 1.57335598E-03 4.77496803E-01
-5.88791743E-02 -9.99711803E-04 -4.78707217E-02 1.75848568E-03 4.85328168E-01
-8.52102786E-03 -9.98326228E-04 -5.88052683E-02 1.47394184E-03 4.46718246E-01
4.26835334E-03 -9.98712494E-04 -6.13703579E-02 1.52380776E-03 4.37350482E-01
5.28747700E-02 -9.98709234E-04 -7.01898932E-02 1.41560880E-03 4.15825993E-01
6.85831681E-02 -1.00022252E-03 -7.27697909E-02 1.44380343E-03 4.08564568E-01
3.16858917E-01 -1.00020075E-03 -1.03684507E-01 9.42806422E-04 3.57816368E-01
3.33750963E-01 -1.00009504E-03 -1.05268516E-01 9.30922688E-04 3.57593894E-01
3.96043092E-01 -9.99800512E-04 -1.10689670E-01 9.17946978E-04 3.57662082E-01
4.10650969E-01 -9.99987707E-04 -1.11870490E-01 9.05487454E-04 3.58129740E-01
4.68018413E-01 -9.99879208E-04 -1.16220400E-01 8.53949343E-04 3.62341255E-01
4.80211735E-01 -1.00003334E-03 -1.17071018E-01 8.35348153E-04 3.63373667E-01
5.40521264E-01 -1.00006349E-03 -1.21032119E-01 7.73579406E-04 3.70972395E-01
-2.42596760E-01 -9.99979326E-04 5.11106923E-02 7.55277229E-03 -1.41516900E+00
-2.43294492E-01 -1.00003427E-03 5.01904115E-02 7.10329879E-03 -1.36670434E+00
-2.42947966E-01 -9.99960117E-04 5.06524742E-02 7.30140973E-03 -1.39150906E+00
-2.42053255E-01 -1.00002741E-03 5.17629124E-02 8.25391710E-03 -1.45023549E+00
-2.41272777E-01 -9.99983167E-04 5.26134670E-02 8.35783780E-03 -1.49063361E+00
-2.43770838E-01 -9.99974087E-04 4.94873561E-02 6.48240699E-03 -1.31605911E+00
-2.44368747E-01 -1.00004219E-03 4.84987460E-02 6.30154042E-03 -1.22486079E+00
-2.40673378E-01 -1.00002042E-03 5.32151498E-02 8.23865645E-03 -1.51440239E+00
-2.39817351E-01 -1.00001437E-03 5.40068299E-02 8.06391053E-03 -1.51759326E+00
-2.39159554E-01 -9.99987242E-04 5.45712039E-02 8.28667637E-03 -1.52529883E+00
-2.38235027E-01 -1.00001402E-03 5.53100109E-02 8.07254948E-03 -1.54114223E+00
-2.37483889E-01 -9.99988639E-04 5.58703616E-02 8.10971018E-03 -1.52778804E+00
-2.36444920E-01 -9.99983866E-04 5.65958582E-02 8.14598706E-03 -1.51756477E+00
-2.35607594E-01 -1.00000575E-03 5.71410879E-02 8.20910092E-03 -1.50719976E+00
-2.34361202E-01 -1.00001332E-03 5.79027906E-02 8.18563346E-03 -1.49800098E+00
-2.33305380E-01 -9.99997021E-04 5.85007556E-02 8.05705320E-03 -1.47395515E+00
-2.31694058E-01 -1.00001681E-03 5.93522266E-02 7.90336542E-03 -1.44316995E+00
-2.30275378E-01 -1.00000505E-03 6.00431599E-02 7.79068796E-03 -1.41816378E+00
-2.28138387E-01 -1.00003113E-03 6.10028319E-02 7.50664528E-03 -1.39101112E+00
-2.26253152E-01 -1.00001495E-03 6.17735907E-02 7.22107198E-03 -1.35416222E+00
-2.23715827E-01 -1.00001844E-03 6.27202839E-02 6.87881140E-03 -1.31935501E+00
-2.21587777E-01 -9.99967335E-04 6.34400919E-02 6.59722835E-03 -1.28510940E+00
-2.18453810E-01 -1.00008375E-03 6.44073561E-02 6.23774435E-03 -1.24392712E+00
-2.44763747E-01 -9.99967684E-04 4.77486551E-02 5.41352201E-03 -1.14890766E+00
-2.45006621E-01 -9.99939162E-04 4.72243354E-02 5.20313065E-03 -1.09366012E+00
-2.18453810E-01 -1.00008375E-03 6.44073561E-02 6.23774435E-03 -1.24392712E+00
-2.14386851E-01 -1.00000261E-03 6.55143932E-02 5.90892183E-03 -1.19303250E+00
-2.10632905E-01 -1.00002310E-03 6.64092377E-02 5.66452835E-03 -1.14564168E+00
-2.12776542E-01 -1.00004533E-03 6.59211800E-02 5.93056716E-03 -1.17087710E+00
-2.06669122E-01 -1.00002158E-03 6.72477558E-02 5.30220848E-03 -1.11152327E+00
-2.01421738E-01 -1.00017525E-03 6.82049841E-02 5.12576522E-03 -1.05982566E+00
-1.96336448E-01 -1.00026315E-03 6.90032691E-02 4.95220069E-03 -1.00197208E+00
-1.89333230E-01 -1.00069225E-03 6.99030831E-02 4.49949224E-03 -9.61458623E-01
-1.83488145E-01 -9.99296550E-04 7.04811886E-02 4.60204668E-03 -9.17917192E-01
-1.73051655E-01 -1.00142672E-03 7.12901652E-02 4.36738180E-03 -8.60583425E-01
-1.60475165E-01 -9.99561045E-04 7.18872473E-02 3.62296985E-03 -8.00278068E-01
-1.48776814E-01 -9.99628683E-04 7.21081048E-02 3.32831405E-03 -7.46437013E-01
-1.36780426E-01 -1.00035768E-03 7.21081421E-02 3.14354245E-03 -6.97845221E-01
-1.19677253E-01 -1.00147037E-03 7.16959089E-02 2.85872770E-03 -6.45595074E-01
-1.09205239E-01 -9.97457653E-04 7.11848140E-02 2.70747975E-03 -6.14208579E-01
-9.32241082E-02 -1.00657425E-03 7.02433437E-02 2.49010627E-03 -5.70873678E-01
2.70513028E-01 -9.99789336E-04 4.93790489E-03 3.59222584E-04 3.67882475E-02
2.83901036E-01 -9.99907963E-04 1.60739431E-03 3.11768003E-04 5.21832928E-02
1.66939884E-01 -9.97914816E-04 2.90783755E-02 8.13073479E-04 -9.34835449E-02
1.44623399E-01 -1.00035116E-03 3.38340774E-02 9.00958257E-04 -1.24482371E-01
2.32915372E-01 -1.00000307E-03 1.40253566E-02 4.70844534E-04 -6.61077071E-03
2.15747580E-01 -1.00005965E-03 1.80415437E-02 5.24945848E-04 -2.71922573E-02
-4.59602401E-02 -1.00049702E-03 6.59115538E-02 1.89803098E-03 -4.58408773E-01
-2.96824705E-02 -9.99475596E-04 6.39638007E-02 1.81785598E-03 -4.23116624E-01
2.77320901E-03 -1.00146001E-03 5.95784113E-02 1.50509516E-03 -3.62424761E-01
2.26155668E-02 -1.00113789E-03 5.65880612E-02 1.32837612E-03 -3.24485362E-01
6.68387860E-02 -9.99027281E-04 4.91005927E-02 1.18487061E-03 -2.48022929E-01
8.56555104E-02 -1.00054033E-03 4.56198268E-02 1.12242985E-03 -2.14958802E-01
3.33212346E-01 -1.00014266E-03 -1.09404260E-02 2.03241303E-04 1.05441749E-01
3.46318811E-01 -9.99924145E-04 -1.43604055E-02 2.15485503E-04 1.18276015E-01
4.07438785E-01 -9.99799580E-04 -3.07340417E-02 -8.48702348E-06 1.76094532E-01
4.19201165E-01 -9.99992481E-04 -3.39586399E-02 -2.57433749E-05 1.87931329E-01
4.78305101E-01 -9.99857206E-04 -5.05075008E-02 -1.64838144E-04 2.39803374E-01
4.89937544E-01 -1.00000610E-03 -5.38417771E-02 -1.88679332E-04 2.49143794E-01
5.46724737E-01 -9.99977347E-04 -7.03704432E-02 -3.17458122E-04 2.94360876E-01
5.58613420E-01 -9.99884796E-04 -7.39047453E-02 -3.17613129E-04 3.02335083E-01
 5 1
 1 2
 2 3
 3 4
 4 7
 7 8
 8 11
 11 13
 13 14
 14 15
 15 19
 19 22
 22 23
 23 24
 24 27
 6 9
 9 10
 10 12
 12 16
 16 17
 17 18
 18 20
 20 21
 21 25
 25 26
 26 28
 28 29
 5 6
 30 33
 33 34
 34 35
 35 37
 37 36
 36 44
 44 45
 45 46
 46 48
 48 47
 47 49
 49 40
 40 42
 42 43
 43 41
 41 38
 38 39
 51 52
 52 50
 50 31
 31 32
 32 30
 61 60
 60 59
 59 57
 57 58
 58 56
 56 54
 54 55
 55 53
 53 51
 65 64
 64 62
 62 63
 63 61
 66 67
 66 65
 68 70
 70 71
 72 69
 69 68
 75 73
 73 74
 74 72
 76 75
 79 78
 78 77
 77 76
 81 82
 82 83
 83 85
 85 84
 84 86
 86 87
 87 95
 95 94
 94 96
 96 97
 97 98
 98 99
 99 93
 93 92
 92 91
 91 90
 90 88
 88 89
 89 100
 100 101
 101 102
 102 103
 103 104
 104 105
 105 106
 81 80
 80 79
 107 110
 110 111
 111 114
 114 115
 115 116
 116 117
 117 118
 118 119
 119 120
 120 121
 121 122
 122 123
 123 124
 124 125
 125 126
 126 127
 127 128
 128 129
 112 108
 108 109
 109 107
 130 113
 113 112
 130 131
 132 133
 133 135
 135 134
 134 136
 136 137
 137 138
 138 139
 139 140
 140 141
 141 142
 142 143
 143 144
 144 145
 145 146
 146 147
 147 154
 154 155
 155 156
 156 157
 157 158
 158 159
 159 151
 151 150
 150 153
 153 152
 152 148
 148 149
 149 160
 160 161
 161 162
 162 163
 163 164
 164 165
 165 166
 166 167
ZONE T="COFFE, HM Y=-0.035"
 STRANDID=0, SOLUTIONTIME=0
 Nodes=188, Elements=183, ZONETYPE=FELineSeg
 DATAPACKING=POINT
 DT=(DOUBLE DOUBLE DOUBLE DOUBLE DOUBLE )
7.36352086E-01 -3.50000001E-02 -1.30167589E-01 1.09036930E-03 4.61329222E-01
7.38038182E-01 -3.50000001E-02 -1.30218923E-01 2.41339998E-03 4.57889199E-01
7.38605797E-01 -3.50000001E-02 -1.30236134E-01 1.56820822E-03 4.55876410E-01
7.38092363E-01 -3.50000001E-02 -1.30066693E-01 1.00248063E-03 4.41724539E-01
7.33821392E-01 -3.50000001E-02 -1.30089417E-01 1.21831882E-03 4.57732171E-01
7.33305454E-01 -3.50000001E-02 -1.30073249E-01 1.22778956E-03 4.56213325E-01
7.33627558E-01 -3.50000001E-02 -1.30083352E-01 1.22187694E-03 4.57161546E-01
7.10316777E-01 -3.50000001E-02 -1.29307613E-01 1.46864413E-03 4.28715318E-01
7.26765513E-01 -3.50000001E-02 -1.29865587E-01 1.34248100E-03 4.44965422E-01
7.20274389E-01 -3.50000001E-02 -1.29651964E-01 1.42497080E-03 4.35844988E-01
6.90788746E-01 -3.50000001E-02 -1.28583089E-01 1.55878405E-03 4.14791584E-01
6.87477052E-01 -3.49999927E-02 -1.28452018E-01 1.57241733E-03 4.13145155E-01
6.80069804E-01 -3.50000225E-02 -1.28158867E-01 1.60287460E-03 4.09462661E-01
6.43295765E-01 -3.49999964E-02 -1.26554653E-01 1.71440665E-03 3.94268900E-01
6.18262827E-01 -3.50000151E-02 -1.25348493E-01 1.76883372E-03 3.86680901E-01
7.36961007E-01 -3.50000001E-02 -1.29693434E-01 3.43107386E-04 4.36667383E-01
7.34145403E-01 -3.50000001E-02 -1.28765762E-01 7.52871056E-05 4.37004924E-01
7.33882844E-01 -3.50000001E-02 -1.28679380E-01 7.40863907E-05 4.37178493E-01
7.33634710E-01 -3.50000001E-02 -1.28597751E-01 7.29515887E-05 4.37342554E-01
7.16061413E-01 -3.50000001E-02 -1.22850448E-01 1.10135858E-04 4.22048897E-01
7.28249907E-01 -3.50000001E-02 -1.26828879E-01 9.43984633E-05 4.31497246E-01
7.21366823E-01 -3.50000001E-02 -1.24577224E-01 1.27302133E-04 4.28667694E-01
6.91914022E-01 -3.50000001E-02 -1.15051955E-01 2.07602337E-04 4.02925670E-01
6.88261032E-01 -3.49999964E-02 -1.13885693E-01 2.28306802E-04 3.99933726E-01
-2.46274218E-01 -3.50000039E-02 3.84043418E-02 -1.17676193E-03 2.84302741E-01
-2.45302215E-01 -3.50000001E-02 3.45456339E-02 -1.64650544E-03 7.11923182E-01
-2.46383399E-01 -3.50000001E-02 4.19556759E-02 8.94462690E-04 -2.70219445E-01
-2.44535968E-01 -3.50000001E-02 3.26917432E-02 -1.58037082E-03 8.32478642E-01
-2.43523002E-01 -3.50000001E-02 3.07327602E-02 -1.25192467E-03 9.16681588E-01
-2.42512837E-01 -3.50000001E-02 2.90903095E-02 -1.14572595E-03 9.77520585E-01
-2.45469153E-01 -3.50000001E-02 3.50105651E-02 -1.67247409E-03 6.79057956E-01
-2.45740086E-01 -3.50000001E-02 3.58801074E-02 -1.65268977E-03 5.95768392E-01
-2.45133176E-01 -3.50000001E-02 3.40809785E-02 -1.65358081E-03 7.42590070E-01
-2.44703442E-01 -3.50000001E-02 3.30511369E-02 -1.60157576E-03 8.02676022E-01
-2.44368419E-01 -3.50000001E-02 3.23321819E-02 -1.55916193E-03 8.62294853E-01
-2.43797034E-01 -3.50000001E-02 3.12212296E-02 -1.29662396E-03 8.97131562E-01
-2.44094625E-01 -3.50000001E-02 3.17882262E-02 -1.41892058E-03 8.83141875E-01
-2.43280277E-01 -3.50000001E-02 3.03131398E-02 -1.21277699E-03 9.34200585E-01
-2.42747217E-01 -3.50000001E-02 2.94487141E-02 -1.22206507E-03 9.63452578E-01
-2.39307329E-01 -3.50000001E-02 2.48954576E-02 -4.95517161E-05 1.03803015E+00
-2.46206358E-01 -3.49999964E-02 3.79206203E-02 -1.44960708E-03 3.54217350E-01
-2.46028975E-01 -3.50000001E-02 3.70141566E-02 -1.50920940E-03 4.76837814E-01
-2.42261454E-01 -3.50000001E-02 2.87124552E-02 -1.06703874E-03 9.89793122E-01
-2.41436064E-01 -3.49999964E-02 2.75423434E-02 -7.10324792E-04 1.02092326E+00
-2.41891474E-01 -3.50000001E-02 2.81806029E-02 -9.00915998E-04 1.00452125E+00
-2.46340618E-01 -3.50000001E-02 3.88874486E-02 -9.58236225E-04 2.20813125E-01
-2.46407062E-01 -3.50000001E-02 3.97093296E-02 -5.01101313E-04 1.09789178E-01
-2.46421531E-01 -3.50000001E-02 4.13132161E-02 4.38596238E-04 -1.63399696E-01
-2.46435627E-01 -3.50000001E-02 4.07028459E-02 7.04748818E-05 -6.19839914E-02
-2.46268466E-01 -3.50000001E-02 4.29493263E-02 1.73711579E-03 -4.25658345E-01
-2.46201932E-01 -3.50000001E-02 4.34120446E-02 2.25824676E-03 -4.96653199E-01
-2.46106878E-01 -3.50000001E-02 4.38676812E-02 2.55788816E-03 -5.87145686E-01
-2.36898005E-01 -3.50000001E-02 2.23076232E-02 3.45903449E-04 1.02417600E+00
-2.38675565E-01 -3.50000001E-02 2.41776556E-02 1.32495174E-04 1.03563368E+00
-2.37453759E-01 -3.50000001E-02 2.28725560E-02 2.53631646E-04 1.02625978E+00
-2.39875287E-01 -3.49999964E-02 2.55573597E-02 -2.30176738E-04 1.03925991E+00
-2.40573242E-01 -3.50000001E-02 2.64157094E-02 -4.25538106E-04 1.02535450E+00
-2.36448854E-01 -3.50000001E-02 2.18605772E-02 4.53987479E-04 1.02232254E+00
-2.35224918E-01 -3.50000039E-02 2.06890497E-02 6.40889979E-04 1.00724936E+00
-2.33797446E-01 -3.49999964E-02 1.93933044E-02 7.32669549E-04 9.91930306E-01
-2.30111152E-01 -3.50000001E-02 1.63168665E-02 7.56899361E-04 9.62449491E-01
-2.32622132E-01 -3.50000001E-02 1.83649510E-02 7.62908952E-04 9.82856393E-01
-2.28550002E-01 -3.49999852E-02 1.51149873E-02 7.67674821E-04 9.58931684E-01
-2.25246266E-01 -3.50000039E-02 1.27089862E-02 9.58117598E-04 9.29448009E-01
-2.45874316E-01 -3.50000001E-02 4.48414981E-02 3.53810447E-03 -7.66366899E-01
-2.45205790E-01 -3.50000039E-02 4.67869751E-02 5.11797890E-03 -1.08263266E+00
-2.44992465E-01 -3.50000039E-02 4.72564586E-02 5.55812847E-03 -1.14705408E+00
-2.45758578E-01 -3.50000001E-02 4.52490933E-02 3.78785608E-03 -8.33977282E-01
-2.45570093E-01 -3.50000001E-02 4.58313227E-02 4.26769862E-03 -9.48759913E-01
-2.22423509E-01 -3.50000113E-02 1.07972259E-02 1.03047874E-03 9.11809385E-01
-2.25246266E-01 -3.50000039E-02 1.27089862E-02 9.58117598E-04 9.29448009E-01
-2.21914440E-01 -3.50000076E-02 1.04583502E-02 1.03796611E-03 9.09158707E-01
-2.19388351E-01 -3.50000113E-02 8.84210505E-03 1.08943461E-03 8.89477491E-01
-2.17962086E-01 -3.50000039E-02 7.96030927E-03 1.12068572E-03 8.81604612E-01
-2.05447793E-01 -3.50000113E-02 9.33238654E-04 1.26796355E-03 7.93962896E-01
-2.00259343E-01 -3.49999890E-02 -1.69328297E-03 1.37415587E-03 7.77273595E-01
-2.14000836E-01 -3.50000001E-02 5.59937861E-03 1.30757736E-03 8.49109590E-01
-2.10206896E-01 -3.50000039E-02 3.46884341E-03 1.29780755E-03 8.18930447E-01
-1.79207042E-01 -3.49999443E-02 -1.11110555E-02 1.63230940E-03 6.86582923E-01
-1.83802083E-01 -3.49999554E-02 -9.22114868E-03 1.55794481E-03 7.03996718E-01
-1.92892045E-01 -3.50000039E-02 -5.18784486E-03 1.45725766E-03 7.37538695E-01
-1.71441913E-01 -3.49999219E-02 -1.42307682E-02 1.72342709E-03 6.58237398E-01
-1.52143538E-01 -3.50004733E-02 -2.12985016E-02 1.83525181E-03 6.14237487E-01
-1.63265467E-01 -3.50000858E-02 -1.73155088E-02 1.76252681E-03 6.39115632E-01
-9.38503146E-02 -3.49999778E-02 -3.90592143E-02 2.15811143E-03 5.17301202E-01
-7.58433267E-02 -3.50000039E-02 -4.36921939E-02 2.17870949E-03 4.97748762E-01
2.96892133E-02 -3.50000896E-02 -6.61201328E-02 2.26373784E-03 4.21137810E-01
1.76313937E-01 -3.50001343E-02 -8.82628486E-02 2.25406187E-03 3.73343229E-01
2.10113451E-01 -3.49999666E-02 -9.23729315E-02 2.22758879E-03 3.68377745E-01
3.58675331E-01 -3.50000039E-02 -1.07508153E-01 2.09342153E-03 3.55641663E-01
2.67549604E-01 -3.49999852E-02 -9.87495705E-02 2.20528152E-03 3.59838933E-01
2.52191931E-01 -3.50000598E-02 -9.71146300E-02 2.20346241E-03 3.61230522E-01
4.87232566E-01 -3.49999703E-02 -1.17550142E-01 1.96926296E-03 3.63009870E-01
3.71238619E-01 -3.50000262E-02 -1.08609684E-01 2.06194352E-03 3.56003076E-01
4.70753253E-01 -3.50000821E-02 -1.16408981E-01 1.97518244E-03 3.59519392E-01
4.28166717E-01 -3.49999927E-02 -1.13251269E-01 2.00475077E-03 3.56831163E-01
4.12147820E-01 -3.50000001E-02 -1.11983940E-01 2.02949485E-03 3.55999410E-01
1.25061516E-02 -3.49998288E-02 -6.29308224E-02 2.26631109E-03 4.28763896E-01
-1.09422624E-01 -3.50015834E-02 -3.47526781E-02 2.09360244E-03 5.39409995E-01
-1.33587912E-01 -3.49996872E-02 -2.74887215E-02 1.98105490E-03 5.76126337E-01
1.46026522E-01 -3.50000188E-02 -8.42909962E-02 2.27274699E-03 3.80496562E-01
4.77792360E-02 -3.50005142E-02 -6.93005994E-02 2.26640678E-03 4.13086653E-01
1.11320592E-01 -3.50010544E-02 -7.93948323E-02 2.28569703E-03 3.90385687E-01
6.84478208E-02 -3.49998511E-02 -7.27692395E-02 2.27477844E-03 4.03982192E-01
-1.82261765E-02 -3.50008495E-02 -5.68524115E-02 2.26216833E-03 4.47734177E-01
4.97679204E-01 -3.50000188E-02 -1.18273549E-01 1.96549203E-03 3.65222573E-01
5.46001971E-01 -3.50000076E-02 -1.21360667E-01 1.91705138E-03 3.70376319E-01
3.48458201E-01 -3.50000039E-02 -1.06598742E-01 2.12667440E-03 3.55190128E-01
3.24762374E-01 -3.50000039E-02 -1.04415812E-01 2.21196143E-03 3.57148111E-01
-5.83455563E-02 -3.49997729E-02 -4.79875356E-02 2.20057764E-03 4.81205851E-01
-3.76506895E-02 -3.49999927E-02 -5.27236797E-02 2.28780392E-03 4.62975770E-01
5.82428873E-01 -3.49999405E-02 -1.23464979E-01 1.83339382E-03 3.78202379E-01
6.18262827E-01 -3.50000151E-02 -1.25348493E-01 1.76883372E-03 3.86680901E-01
-2.43532151E-01 -3.50000039E-02 4.98392731E-02 7.58911390E-03 -1.48045254E+00
-2.42330790E-01 -3.50000001E-02 5.14293611E-02 8.47764872E-03 -1.63944447E+00
-2.43254349E-01 -3.49999964E-02 5.02468608E-02 7.76041625E-03 -1.51891363E+00
-2.42700234E-01 -3.50000001E-02 5.09811267E-02 8.41792300E-03 -1.60453153E+00
-2.43808836E-01 -3.49999964E-02 4.94304709E-02 7.22100167E-03 -1.44189596E+00
-2.44378254E-01 -3.49999964E-02 4.84786108E-02 6.79301564E-03 -1.32720804E+00
-2.44743541E-01 -3.50000039E-02 4.77877110E-02 5.95808495E-03 -1.22118342E+00
-2.44992465E-01 -3.50000039E-02 4.72564586E-02 5.55812847E-03 -1.14705408E+00
-2.41889611E-01 -3.50000001E-02 5.19449674E-02 8.57035257E-03 -1.67599142E+00
-2.41550013E-01 -3.50000001E-02 5.23166209E-02 8.74273572E-03 -1.69678462E+00
-2.40632430E-01 -3.50000001E-02 5.32553904E-02 8.98535643E-03 -1.73758245E+00
-2.39793599E-01 -3.50000001E-02 5.40257916E-02 9.19198338E-03 -1.75948036E+00
-2.40239054E-01 -3.50000001E-02 5.36206849E-02 9.11669619E-03 -1.74908853E+00
-2.39162207E-01 -3.50000001E-02 5.45690246E-02 9.28165670E-03 -1.76495159E+00
-2.38290831E-01 -3.50000001E-02 5.52675165E-02 9.38459300E-03 -1.76623201E+00
-2.33508900E-01 -3.50000039E-02 5.83869107E-02 9.63483099E-03 -1.71722698E+00
-2.37273738E-01 -3.50000001E-02 5.60202785E-02 9.48022958E-03 -1.75599623E+00
-2.36303568E-01 -3.50000001E-02 5.66908754E-02 9.61243734E-03 -1.75156868E+00
-2.29495451E-01 -3.50000001E-02 6.04072586E-02 9.54688527E-03 -1.63045681E+00
-2.34006643E-01 -3.50000039E-02 5.81118166E-02 9.65178013E-03 -1.72783458E+00
-2.35455900E-01 -3.50000001E-02 5.72366118E-02 9.71771404E-03 -1.74238002E+00
-2.32710347E-01 -3.50000001E-02 5.88279180E-02 9.64963064E-03 -1.70025015E+00
-2.30605975E-01 -3.49999927E-02 5.98872565E-02 9.53389425E-03 -1.65227616E+00
-2.32198194E-01 -3.50000039E-02 5.90930879E-02 9.59109515E-03 -1.68851888E+00
-2.29027301E-01 -3.50000001E-02 6.06175512E-02 9.51580983E-03 -1.62059867E+00
-2.28138834E-01 -3.49999890E-02 6.10005371E-02 9.56414919E-03 -1.60113704E+00
-2.20525518E-01 -3.50000076E-02 6.37793019E-02 8.89282674E-03 -1.44208217E+00
-2.20585391E-01 -3.50000076E-02 6.37602285E-02 8.90191644E-03 -1.44318616E+00
-2.24830672E-01 -3.50000039E-02 6.23197109E-02 9.37309768E-03 -1.52734745E+00
-2.20474645E-01 -3.50000076E-02 6.37955070E-02 8.88510328E-03 -1.44114399E+00
-2.15243831E-01 -3.50000113E-02 6.53012097E-02 8.30326136E-03 -1.34202147E+00
-2.12787449E-01 -3.50000151E-02 6.59043938E-02 8.00861511E-03 -1.30440569E+00
-2.10133687E-01 -3.49999927E-02 6.65289164E-02 7.73510523E-03 -1.26416886E+00
-2.04340428E-01 -3.49999927E-02 6.76866248E-02 7.44040497E-03 -1.18706131E+00
-2.01527730E-01 -3.49999890E-02 6.81953579E-02 7.33376201E-03 -1.15092027E+00
-2.01527730E-01 -3.49999890E-02 6.81953579E-02 7.33376201E-03 -1.15092027E+00
-1.93504587E-01 -3.49999927E-02 6.93835020E-02 6.87864935E-03 -1.06500912E+00
-1.84541330E-01 -3.49998884E-02 7.03874603E-02 6.60461280E-03 -1.00262964E+00
-1.71036825E-01 -3.50000151E-02 7.14206100E-02 6.23011310E-03 -8.97027373E-01
-1.59039974E-01 -3.49999778E-02 7.19416589E-02 5.90347592E-03 -8.29866171E-01
-1.51630551E-01 -3.50000188E-02 7.21013024E-02 5.75005496E-03 -7.90139914E-01
-1.27297252E-01 -3.49995196E-02 7.19014257E-02 5.25326887E-03 -6.91886604E-01
-4.75440174E-02 -3.50000523E-02 6.60607740E-02 4.10565035E-03 -4.72791284E-01
6.17241025E-01 -3.50000113E-02 -9.16323885E-02 4.76825400E-04 3.46243441E-01
1.43838972E-01 -3.49999964E-02 3.40286084E-02 2.43026018E-03 -1.25546291E-01
3.82683463E-02 -3.50001603E-02 5.40598333E-02 3.25779663E-03 -3.03564489E-01
4.74896431E-01 -3.49999927E-02 -4.95385379E-02 9.61081707E-04 2.34652653E-01
-1.06988326E-01 -3.50002944E-02 7.10623935E-02 4.88564046E-03 -6.27217174E-01
-8.13751742E-02 -3.49991471E-02 6.93125874E-02 4.52041579E-03 -5.56225598E-01
1.46537915E-01 -3.49999815E-02 3.34536731E-02 2.41900864E-03 -1.22603498E-01
1.81980014E-01 -3.50000039E-02 2.57324520E-02 2.22504535E-03 -7.70058632E-02
3.21294129E-01 -3.49999592E-02 -7.85106607E-03 1.58727355E-03 9.23545435E-02
2.89878190E-01 -3.49999964E-02 8.05801028E-05 1.68816873E-03 5.47357798E-02
3.05080503E-01 -3.50001194E-02 -3.75553477E-03 1.63922261E-03 7.30124414E-02
1.39974087E-01 -3.49999294E-02 3.48466523E-02 2.44619069E-03 -1.30189657E-01
7.07492158E-02 -3.50000747E-02 4.84016649E-02 2.97216768E-03 -2.42914945E-01
8.94970372E-02 -3.50000262E-02 4.49040383E-02 2.80889263E-03 -2.12964475E-01
6.44884586E-01 -3.50000411E-02 -1.00187592E-01 4.00762539E-04 3.64788413E-01
5.08543730E-01 -3.50000821E-02 -5.91968335E-02 8.36422027E-04 2.62963951E-01
5.35611153E-01 -3.49999890E-02 -6.71045333E-02 7.65366713E-04 2.86440372E-01
3.61122698E-01 -3.50000001E-02 -1.82708539E-02 1.36022328E-03 1.29936069E-01
3.76764804E-01 -3.50000001E-02 -2.24423613E-02 1.29914633E-03 1.45745605E-01
3.70271921E-01 -3.50000113E-02 -2.07108073E-02 1.32461207E-03 1.39183208E-01
5.88481903E-01 -3.49999927E-02 -8.28657821E-02 5.72032353E-04 3.22306037E-01
5.76855898E-01 -3.49999964E-02 -7.93487430E-02 6.34284981E-04 3.13309968E-01
6.85398877E-01 -3.50000001E-02 -1.12971909E-01 2.44519848E-04 3.97589505E-01
4.34330434E-01 -3.50000001E-02 -3.81397009E-02 1.07151596E-03 2.02691585E-01
4.23329204E-01 -3.50000001E-02 -3.51031125E-02 1.09699520E-03 1.90983862E-01
1.34017440E-02 -3.50006782E-02 5.80257885E-02 3.50926747E-03 -3.51059914E-01
-1.67097691E-02 -3.50001566E-02 6.23271652E-02 3.88518558E-03 -4.06599820E-01
3.22493166E-03 -3.49998511E-02 5.95153719E-02 3.64745059E-03 -3.70139688E-01
2.16954529E-01 -3.50000933E-02 1.77508127E-02 2.05373042E-03 -2.92258542E-02
2.28854999E-01 -3.49999815E-02 1.49804233E-02 2.00361502E-03 -1.36553347E-02
6.87500179E-01 -3.49999964E-02 -1.13642782E-01 2.32617487E-04 3.99310559E-01
6.88261032E-01 -3.49999964E-02 -1.13885693E-01 2.28306802E-04 3.99933726E-01
 3 2
 2 1
 1 5
 5 7
 7 6
 6 9
 9 10
 10 8
 8 11
 11 12
 12 13
 13 14
 14 15
 4 3
 16 4
 16 17
 17 18
 18 19
 19 21
 21 22
 22 20
 20 23
 23 24
 25 41
 41 42
 42 32
 32 31
 31 26
 26 33
 33 34
 34 28
 28 35
 35 37
 37 36
 36 29
 29 38
 38 39
 39 30
 30 43
 43 45
 45 44
 44 57
 57 56
 56 40
 40 54
 54 55
 55 53
 53 58
 58 59
 59 60