TITLE     = "Translation of CGNS file naca0012Flow00000442.cgns"
VARIABLES = "x"
"y"
"z"
"Cp"
DATASETAUXDATA Common.DensityVar="4"
DATASETAUXDATA Common.PressureVar="10"
DATASETAUXDATA Common.TemperatureVar="9"
DATASETAUXDATA Common.UVar="5"
DATASETAUXDATA Common.VectorVarsAreVelocity="TRUE"
DATASETAUXDATA Common.VVar="6"
DATASETAUXDATA Common.WVar="7"
ZONE T="COFFE, MIT adapt Y=-0.001"
 STRANDID=6, SOLUTIONTIME=442
 Nodes=547, Elements=547, ZONETYPE=FELineSeg
 DATAPACKING=POINT
 AUXDATA CGNS.CGNSBase_t="Base"
 AUXDATA CGNS.Zone_t="Zone"
 DT=(DOUBLE DOUBLE DOUBLE DOUBLE )
 7.386033499E-01 -1.000000000E-03 -1.302360567E-01 4.463557878E-01
 7.386051187E-01 -1.000000000E-03 -1.302361115E-01 4.443529754E-01
 7.386051866E-01 -1.000000000E-03 -1.302359261E-01 4.482181444E-01
 7.386058150E-01 -1.000000000E-03 -1.302361330E-01 4.421724377E-01
 7.386051298E-01 -1.000000000E-03 -1.302361118E-01 4.443255490E-01
 7.386001685E-01 -1.000000000E-03 -1.302359582E-01 4.483804811E-01
 7.386001836E-01 -1.000000000E-03 -1.302359587E-01 4.484112672E-01
 7.386001328E-01 -1.000000000E-03 -1.302359572E-01 4.484000406E-01
 7.386051812E-01 -1.000000000E-03 -1.302359243E-01 4.482108140E-01
 7.386041532E-01 -1.000000000E-03 -1.302355859E-01 4.483782128E-01
 7.386033359E-01 -1.000000000E-03 -1.302360563E-01 4.463455627E-01
 7.386041448E-01 -1.000000000E-03 -1.302355831E-01 4.484086232E-01
 7.386006380E-01 -1.000000000E-03 -1.302344284E-01 4.468717733E-01
 -1.163769662E-01 -1.000000000E-03 -3.279013675E-02 5.528298546E-01
 -1.163041545E-01 -1.000000000E-03 -3.281142803E-02 5.527580280E-01
 -1.199347569E-01 -1.000000000E-03 -3.173701345E-02 5.582232774E-01
 -1.106617462E-01 -1.000000000E-03 -3.444465792E-02 5.438636407E-01
 -1.106040186E-01 -1.000000000E-03 -3.446123968E-02 5.437996904E-01
 -1.066062386E-01 -1.000000000E-03 -3.559701984E-02 5.346470302E-01
 -1.065476229E-01 -1.000000000E-03 -3.561359109E-02 5.345684037E-01
 -1.031131871E-01 -1.000000000E-03 -3.657647939E-02 5.309385872E-01
 -1.030413732E-01 -1.000000000E-03 -3.659644217E-02 5.308635071E-01
 -9.814246466E-02 -1.000000000E-03 -3.794557051E-02 5.257550493E-01
 -9.808214647E-02 -1.000000000E-03 -3.796208611E-02 5.256430029E-01
 -9.797671419E-02 -1.000000000E-03 -3.799053301E-02 5.254907730E-01
 -9.132410600E-02 -1.000000000E-03 -3.977801874E-02 5.185465767E-01
 -9.119397479E-02 -1.000000000E-03 -3.981244603E-02 5.184196941E-01
 -8.422542370E-02 -1.000000000E-03 -4.163570561E-02 5.059685869E-01
 -8.412407000E-02 -1.000000000E-03 -4.166196830E-02 5.058535704E-01
 -7.863557981E-02 -1.000000000E-03 -4.306559814E-02 5.014484639E-01
 -7.852510637E-02 -1.000000000E-03 -4.309353418E-02 5.013398214E-01
 -7.151992920E-02 -1.000000000E-03 -4.484313442E-02 4.975266057E-01
 -7.139622967E-02 -1.000000000E-03 -4.487371068E-02 4.974103294E-01
 -6.475464790E-02 -1.000000000E-03 -4.649252468E-02 4.902244209E-01
 -6.461975009E-02 -1.000000000E-03 -4.652499044E-02 4.900959212E-01
 -5.772607436E-02 -1.000000000E-03 -4.816578037E-02 4.800773909E-01
 -5.760082527E-02 -1.000000000E-03 -4.819523962E-02 4.799738752E-01
 -5.242754382E-02 -1.000000000E-03 -4.940110348E-02 4.775493148E-01
 -5.234545351E-02 -1.000000000E-03 -4.942006366E-02 4.774700527E-01
 -4.662934401E-02 -1.000000000E-03 -5.072828341E-02 4.686166622E-01
 -4.656488871E-02 -1.000000000E-03 -5.074278097E-02 4.685706640E-01
 -4.666837767E-02 -1.000000000E-03 -5.071939871E-02 4.686534970E-01
 -3.932739570E-02 -1.000000000E-03 -5.236386355E-02 4.666361212E-01
 -3.923460421E-02 -1.000000000E-03 -5.238433613E-02 4.665636992E-01
 -3.296731037E-02 -1.000000000E-03 -5.375760261E-02 4.594331347E-01
 -3.306966939E-02 -1.000000000E-03 -5.373546200E-02 4.594739730E-01
 -2.621216129E-02 -1.000000000E-03 -5.520786869E-02 4.572316791E-01
 -2.386074137E-01 -1.000000000E-03 5.502001187E-02 -1.548892296E+00
 -2.378563111E-01 -1.000000000E-03 5.559140420E-02 -1.522566954E+00
 -2.412731825E-01 -1.000000000E-03 5.261117506E-02 -1.504570869E+00
 -2.417215359E-01 -1.000000000E-03 5.213506860E-02 -1.462285990E+00
 -2.408881437E-01 -1.000000000E-03 5.300323302E-02 -1.521424788E+00
 -2.403017840E-01 -1.000000000E-03 5.356596137E-02 -1.547880422E+00
 -2.367140371E-01 -1.000000000E-03 5.641410668E-02 -1.557151609E+00
 -2.401393247E-01 -1.000000000E-03 5.371842193E-02 -1.561556289E+00
 -2.389169712E-01 -1.000000000E-03 5.476362032E-02 -1.553441817E+00
 -2.394170049E-01 -1.000000000E-03 5.435498285E-02 -1.523588501E+00
 -2.399513755E-01 -1.000000000E-03 5.388511610E-02 -1.554385393E+00
 -2.376342468E-01 -1.000000000E-03 5.576181500E-02 -1.532337029E+00
 -2.368274724E-01 -1.000000000E-03 5.633419068E-02 -1.555969670E+00
 -2.336342107E-01 -1.000000000E-03 5.832384527E-02 -1.480171979E+00
 -2.433324302E-01 -1.000000000E-03 5.013761058E-02 -1.412552738E+00
 -2.429569652E-01 -1.000000000E-03 5.064500252E-02 -1.439287475E+00
 -2.427717915E-01 -1.000000000E-03 5.089205158E-02 -1.443000056E+00
 -2.421553784E-01 -1.000000000E-03 5.164150753E-02 -1.439661696E+00
 -2.425308868E-01 -1.000000000E-03 5.118979810E-02 -1.443925488E+00
 -2.364816371E-01 -1.000000000E-03 5.656513330E-02 -1.545390930E+00
 -2.343025804E-01 -1.000000000E-03 5.792901209E-02 -1.483284493E+00
 -2.351559975E-01 -1.000000000E-03 5.742747516E-02 -1.486608368E+00
 -2.435845895E-01 -1.000000000E-03 4.976582708E-02 -1.371668605E+00
 -2.438188649E-01 -1.000000000E-03 4.941537978E-02 -1.324279193E+00
 -2.443718897E-01 -1.000000000E-03 4.848638604E-02 -1.259392007E+00
 -2.441432348E-01 -1.000000000E-03 4.888469512E-02 -1.275530238E+00
 -2.449579966E-01 -1.000000000E-03 4.734377611E-02 -1.108740805E+00
 -2.452493377E-01 -1.000000000E-03 4.667146808E-02 -1.028098621E+00
 -2.448249682E-01 -1.000000000E-03 4.762525825E-02 -1.126393230E+00
 -2.446325613E-01 -1.000000000E-03 4.800495928E-02 -1.220046208E+00
 -2.330878639E-01 -1.000000000E-03 5.861842777E-02 -1.486875249E+00
 -2.320508003E-01 -1.000000000E-03 5.917555465E-02 -1.482361581E+00
 -2.313205578E-01 -1.000000000E-03 5.953700791E-02 -1.447779844E+00
 -2.303356619E-01 -1.000000000E-03 6.002117556E-02 -1.434121930E+00
 -2.267591082E-01 -1.000000000E-03 6.157471458E-02 -1.360558311E+00
 -2.274335633E-01 -1.000000000E-03 6.130480789E-02 -1.368353661E+00
 -2.293203646E-01 -1.000000000E-03 6.048953313E-02 -1.464970284E+00
 -2.292373958E-01 -1.000000000E-03 6.052642706E-02 -1.463592289E+00
 -2.244317629E-01 -1.000000000E-03 6.247013508E-02 -1.353639100E+00
 -2.223239675E-01 -1.000000000E-03 6.320404489E-02 -1.312087212E+00
 -2.258151273E-01 -1.000000000E-03 6.195137646E-02 -1.352488790E+00
 -2.246269813E-01 -1.000000000E-03 6.239840583E-02 -1.357906973E+00
 -2.218962912E-01 -1.000000000E-03 6.335001591E-02 -1.302106643E+00
 -2.220533811E-01 -1.000000000E-03 6.329770732E-02 -1.306930391E+00
 -2.206482637E-01 -1.000000000E-03 6.374711649E-02 -1.279910011E+00
 -2.174189567E-01 -1.000000000E-03 6.471233438E-02 -1.247300483E+00
 -2.182734540E-01 -1.000000000E-03 6.447236836E-02 -1.252123845E+00
 -2.164200838E-01 -1.000000000E-03 6.499258337E-02 -1.229410220E+00
 -2.156037229E-01 -1.000000000E-03 6.521041777E-02 -1.219726522E+00
 -2.196684520E-01 -1.000000000E-03 6.405688637E-02 -1.260284584E+00
 -2.133994215E-01 -1.000000000E-03 6.576723151E-02 -1.182975175E+00
 -2.102828439E-01 -1.000000000E-03 6.650091161E-02 -1.176162396E+00
 -2.077085741E-01 -1.000000000E-03 6.704873165E-02 -1.121057841E+00
 -2.123378370E-01 -1.000000000E-03 6.602970518E-02 -1.169480353E+00
 -2.104569263E-01 -1.000000000E-03 6.646157638E-02 -1.177370932E+00
 -2.068144647E-01 -1.000000000E-03 6.722714070E-02 -1.108876076E+00
 -2.022101900E-01 -1.000000000E-03 6.807602235E-02 -1.078719037E+00
 -2.045550216E-01 -1.000000000E-03 6.766342267E-02 -1.089386722E+00
 -2.015065432E-01 -1.000000000E-03 6.820262555E-02 -1.076239504E+00
 -1.136284409E-01 -1.000000000E-03 7.145752319E-02 -6.317337342E-01
 -1.061959838E-01 -1.000000000E-03 7.108618978E-02 -6.161800982E-01
 -9.702218114E-02 -1.000000000E-03 7.054430643E-02 -5.798468471E-01
 -1.019990504E-01 -1.000000000E-03 7.084609687E-02 -6.003020794E-01
 -5.682362555E-02 -1.000000000E-03 6.712283949E-02 -4.825845776E-01
 -6.504435529E-02 -1.000000000E-03 6.793648230E-02 -5.014093054E-01
 -6.967217740E-02 -1.000000000E-03 6.838087931E-02 -5.137786698E-01
 -4.803090799E-02 -1.000000000E-03 6.615534081E-02 -4.628074673E-01
 -3.890539479E-02 -1.000000000E-03 6.513492813E-02 -4.419137947E-01
 -3.043565920E-02 -1.000000000E-03 6.410702568E-02 -4.307624446E-01
 3.903743866E-01 -1.000000000E-03 -2.608783689E-02 1.645527448E-01
 3.648027617E-01 -1.000000000E-03 -1.924191135E-02 1.397009500E-01
 3.875826652E-01 -1.000000000E-03 -2.533257505E-02 1.618614442E-01
 3.253139459E-01 -1.000000000E-03 -8.887242826E-03 1.001889514E-01
 3.410144160E-01 -1.000000000E-03 -1.297687219E-02 1.160430058E-01
 3.535814568E-01 -1.000000000E-03 -1.626212680E-02 1.289402994E-01
 3.249374415E-01 -1.000000000E-03 -8.789042207E-03 9.979351524E-02
 2.771611892E-01 -1.000000000E-03 3.298385971E-03 4.739521572E-02
 2.894578516E-01 -1.000000000E-03 2.367809796E-04 5.955965812E-02
 3.245619315E-01 -1.000000000E-03 -8.692676329E-03 9.939986870E-02
 3.096366557E-01 -1.000000000E-03 -4.864256816E-03 8.356928240E-02
 3.006452115E-01 -1.000000000E-03 -2.588846388E-03 7.250514736E-02
 3.945996775E-01 -1.000000000E-03 -2.724220210E-02 1.683466481E-01
 4.172590946E-01 -1.000000000E-03 -3.341847786E-02 1.892512485E-01
 4.386712507E-01 -1.000000000E-03 -3.934598104E-02 2.085844647E-01
 2.726499244E-01 -1.000000000E-03 4.417720347E-03 4.259967451E-02
 2.620309025E-01 -1.000000000E-03 7.022689695E-03 2.989240036E-02
 2.547366351E-01 -1.000000000E-03 8.802008220E-03 2.074056063E-02
 -2.450094402E-01 -1.000000000E-03 3.377092960E-02 6.275083680E-01
 -2.455627891E-01 -1.000000000E-03 3.530002949E-02 4.715382109E-01
 -2.455384966E-01 -1.000000000E-03 3.521684139E-02 4.772597310E-01
 -2.454766788E-01 -1.000000000E-03 3.504936339E-02 4.962466675E-01
 -2.459247314E-01 -1.000000000E-03 3.656810033E-02 3.455170128E-01
 -2.460924565E-01 -1.000000000E-03 3.731813582E-02 2.278107351E-01
 -2.461332996E-01 -1.000000000E-03 3.751717026E-02 2.070748605E-01
 -2.463242968E-01 -1.000000000E-03 3.874439037E-02 8.798426591E-02
 -2.463361132E-01 -1.000000000E-03 3.884921008E-02 7.941595925E-02
 -2.464253243E-01 -1.000000000E-03 4.001049334E-02 -9.262306690E-02
 -2.464269197E-01 -1.000000000E-03 4.009392991E-02 -1.068141989E-01
 -2.464261917E-01 -1.000000000E-03 4.002680762E-02 -9.715206218E-02
 -2.463793764E-01 -1.000000000E-03 4.203509533E-02 -3.875160742E-01
 -2.464201443E-01 -1.000000000E-03 4.121310345E-02 -2.782467396E-01
 -2.463231691E-01 -1.000000000E-03 4.257125199E-02 -5.153591301E-01
 -2.464360483E-01 -1.000000000E-03 4.094065101E-02 -2.476125354E-01
 -2.462807698E-01 -1.000000000E-03 4.289503004E-02 -5.558200439E-01
 -2.462019380E-01 -1.000000000E-03 4.341204442E-02 -5.781471574E-01
 -2.461474349E-01 -1.000000000E-03 4.366940297E-02 -6.455687010E-01
 -2.463099955E-01 -1.000000000E-03 4.270247756E-02 -5.409507667E-01
 -2.460182853E-01 -1.000000000E-03 4.429764748E-02 -7.609169957E-01
 -2.458981676E-01 -1.000000000E-03 4.476371946E-02 -8.293257305E-01
 -2.457779617E-01 -1.000000000E-03 4.517964948E-02 -8.469697365E-01
 -2.455873511E-01 -1.000000000E-03 4.577683353E-02 -9.138638754E-01
 -2.454076687E-01 -1.000000000E-03 4.627783556E-02 -9.680345545E-01
 4.434492221E-01 -1.000000000E-03 -4.067201676E-02 2.129105167E-01
 6.732513516E-01 -1.000000000E-03 -1.091018515E-01 4.044832986E-01
 6.966517738E-01 -1.000000000E-03 -1.165694596E-01 4.220085256E-01
 6.654296250E-01 -1.000000000E-03 -1.066234897E-01 3.987423207E-01
 6.975746801E-01 -1.000000000E-03 -1.168653975E-01 4.226582529E-01
 7.197328680E-01 -1.000000000E-03 -1.240443272E-01 4.362246141E-01
 7.222011330E-01 -1.000000000E-03 -1.248499367E-01 4.380674331E-01
 6.972148424E-01 -1.000000000E-03 -1.167490420E-01 4.224298127E-01
 6.972919060E-01 -1.000000000E-03 -1.167737359E-01 4.224835653E-01
 4.795857340E-01 -1.000000000E-03 -5.087072519E-02 2.443109205E-01
 5.001883832E-01 -1.000000000E-03 -5.677788445E-02 2.621368888E-01
 4.463170976E-01 -1.000000000E-03 -4.147848148E-02 2.153813918E-01
 4.759055537E-01 -1.000000000E-03 -4.982192174E-02 2.411172033E-01
 5.598543776E-01 -1.000000000E-03 -7.426018801E-02 3.123125289E-01
 5.442956489E-01 -1.000000000E-03 -6.965441608E-02 2.991386180E-01
 5.146741934E-01 -1.000000000E-03 -6.098028506E-02 2.745376988E-01
 5.296432277E-01 -1.000000000E-03 -6.533698903E-02 2.871423034E-01
 5.058873404E-01 -1.000000000E-03 -5.842225530E-02 2.668969789E-01
 5.620441419E-01 -1.000000000E-03 -7.491344685E-02 3.141676426E-01
 5.924827956E-01 -1.000000000E-03 -8.406139622E-02 3.392953664E-01
 5.865632771E-01 -1.000000000E-03 -8.227684527E-02 3.345916747E-01
 5.670791944E-01 -1.000000000E-03 -7.642784158E-02 3.183411619E-01
 6.277984566E-01 -1.000000000E-03 -9.486963930E-02 3.688299493E-01
 6.088816672E-01 -1.000000000E-03 -8.907023034E-02 3.528806897E-01
 6.398654011E-01 -1.000000000E-03 -9.862297529E-02 3.787265165E-01
 -1.211702357E-01 -1.000000000E-03 7.174060089E-02 -6.559180000E-01
 -1.168284290E-01 -1.000000000E-03 7.159680167E-02 -6.377030904E-01
 -1.255494302E-01 -1.000000000E-03 7.190099374E-02 -6.719802195E-01
 -7.780443570E-02 -1.000000000E-03 6.910101277E-02 -5.321038883E-01
 -9.240529096E-02 -1.000000000E-03 7.022801032E-02 -5.740053815E-01
 -8.753110030E-02 -1.000000000E-03 6.987561281E-02 -5.572962468E-01
 -8.151243306E-02 -1.000000000E-03 6.940731731E-02 -5.372173647E-01
 -1.297259041E-01 -1.000000000E-03 7.200833311E-02 -6.823757595E-01
 -1.339245337E-01 -1.000000000E-03 7.208937842E-02 -6.943280849E-01
 -1.322966800E-01 -1.000000000E-03 7.206663051E-02 -6.871857348E-01
 -1.592499563E-01 -1.000000000E-03 7.195641107E-02 -8.020793814E-01
 -1.535075440E-01 -1.000000000E-03 7.208453605E-02 -7.664642728E-01
 -1.610888439E-01 -1.000000000E-03 7.189993550E-02 -8.082869386E-01
 -1.523944748E-01 -1.000000000E-03 7.211215305E-02 -7.610052515E-01
 -1.412427884E-01 -1.000000000E-03 7.217119550E-02 -7.274057569E-01
 -1.438001800E-01 -1.000000000E-03 7.217526013E-02 -7.372211388E-01
 -1.476924952E-01 -1.000000000E-03 7.216591672E-02 -7.474408427E-01
 -1.515020748E-01 -1.000000000E-03 7.212631184E-02 -7.559957211E-01
 -1.746152193E-01 -1.000000000E-03 7.122648137E-02 -8.745446326E-01
 -1.761023036E-01 -1.000000000E-03 7.112125990E-02 -8.825959265E-01
 -1.696022444E-01 -1.000000000E-03 7.152194766E-02 -8.469064055E-01
 -1.786855949E-01 -1.000000000E-03 7.092874648E-02 -8.986592886E-01
 -1.822486429E-01 -1.000000000E-03 7.062539131E-02 -9.264416087E-01
 -1.850196783E-01 -1.000000000E-03 7.036240388E-02 -9.406154786E-01
 -1.836038722E-01 -1.000000000E-03 7.050450725E-02 -9.383371614E-01
 -1.873859633E-01 -1.000000000E-03 7.012352140E-02 -9.511346791E-01
 -1.908915775E-01 -1.000000000E-03 6.972413431E-02 -9.737258632E-01
 -1.927682926E-01 -1.000000000E-03 6.948852057E-02 -9.884615642E-01
 -1.892579304E-01 -1.000000000E-03 6.990808886E-02 -9.599274721E-01
 -1.975041893E-01 -1.000000000E-03 6.883673744E-02 -1.045057432E+00
 -1.955169334E-01 -1.000000000E-03 6.911501799E-02 -1.020786880E+00
 -1.942396187E-01 -1.000000000E-03 6.929706886E-02 -1.005339938E+00
 -2.009807309E-01 -1.000000000E-03 6.828988419E-02 -1.069149076E+00
 -1.999033324E-01 -1.000000000E-03 6.845752318E-02 -1.063377810E+00
 -1.681107207E-01 -1.000000000E-03 7.160487183E-02 -8.390321605E-01
 -1.685980426E-01 -1.000000000E-03 7.158216487E-02 -8.418390033E-01
 -1.684555013E-01 -1.000000000E-03 7.158992911E-02 -8.408001711E-01
 -7.167788392E-03 -1.000000000E-03 -5.913790317E-02 4.404368450E-01
 -1.344480625E-02 -1.000000000E-03 -5.786739026E-02 4.455475092E-01
 -1.354943011E-02 -1.000000000E-03 -5.784609609E-02 4.456306569E-01
 -1.927698591E-02 -1.000000000E-03 -5.666555810E-02 4.525022659E-01
 -7.023928254E-03 -1.000000000E-03 -5.916657189E-02 4.403810903E-01
 -2.612592600E-02 -1.000000000E-03 -5.522618462E-02 4.571713854E-01
 1.158622666E-03 -1.000000000E-03 -6.078744743E-02 4.396998394E-01
 -1.938339998E-02 -1.000000000E-03 -5.664343224E-02 4.525633521E-01
 1.757897563E-02 -1.000000000E-03 -6.392582807E-02 4.298031736E-01
 1.738445834E-02 -1.000000000E-03 -6.388921607E-02 4.298401643E-01
 2.303502163E-02 -1.000000000E-03 -6.493654607E-02 4.263208620E-01
 2.320423819E-02 -1.000000000E-03 -6.496772006E-02 4.261991386E-01
 3.056502916E-02 -1.000000000E-03 -6.630701799E-02 4.209939204E-01
 6.529120144E-03 -1.000000000E-03 -6.182922465E-02 4.317681393E-01
 6.692161989E-03 -1.000000000E-03 -6.186051961E-02 4.317040974E-01
 1.262043131E-03 -1.000000000E-03 -6.080768155E-02 4.396148532E-01
 3.072193244E-02 -1.000000000E-03 -6.633529283E-02 4.209105404E-01
 4.424218970E-02 -1.000000000E-03 -6.872462619E-02 4.143941098E-01
 3.615240262E-02 -1.000000000E-03 -6.730476549E-02 4.205219314E-01
 3.604162586E-02 -1.000000000E-03 -6.728521142E-02 4.206063572E-01
 4.438457211E-02 -1.000000000E-03 -6.874930899E-02 4.143635017E-01
 7.357723520E-01 -1.000000000E-03 -1.293030253E-01 4.473186003E-01
 7.310516574E-01 -1.000000000E-03 -1.277498946E-01 4.440822795E-01
 7.363660623E-01 -1.000000000E-03 -1.294986389E-01 4.478149531E-01
 7.376989414E-01 -1.000000000E-03 -1.299373318E-01 4.490373331E-01
 7.326880655E-01 -1.000000000E-03 -1.282872645E-01 4.450714144E-01
 7.339356012E-01 -1.000000000E-03 -1.286974982E-01 4.458273312E-01
 7.384670909E-01 -1.000000000E-03 -1.301904452E-01 4.493367446E-01
 7.379149586E-01 -1.000000000E-03 -1.300086685E-01 4.490445403E-01
 7.378748914E-01 -1.000000000E-03 -1.299954515E-01 4.490968545E-01
 7.384755726E-01 -1.000000000E-03 -1.301932477E-01 4.492888689E-01
 -2.442359684E-01 -1.000000000E-03 3.206060474E-02 7.526836285E-01
 -2.439670270E-01 -1.000000000E-03 3.155497996E-02 7.752972182E-01
 -2.448195952E-01 -1.000000000E-03 3.332902080E-02 6.730097721E-01
 -2.421097463E-01 -1.000000000E-03 2.850771100E-02 9.149690112E-01
 -2.413247943E-01 -1.000000000E-03 2.739282955E-02 9.451169379E-01
 -2.434883419E-01 -1.000000000E-03 3.066693647E-02 8.133307772E-01
 -2.425656137E-01 -1.000000000E-03 2.916554674E-02 8.918143130E-01
 -2.432275888E-01 -1.000000000E-03 3.024256242E-02 8.326943107E-01
 -2.396431267E-01 -1.000000000E-03 2.527865447E-02 9.791182974E-01
 -2.377109768E-01 -1.000000000E-03 2.313771044E-02 1.002081643E+00
 -2.368703113E-01 -1.000000000E-03 2.227925272E-02 1.006052667E+00
 -2.365307311E-01 -1.000000000E-03 2.194446249E-02 1.007954049E+00
 -2.376158477E-01 -1.000000000E-03 2.303724628E-02 1.002445423E+00
 -2.361453934E-01 -1.000000000E-03 2.155983939E-02 1.009361089E+00
 -2.382095503E-01 -1.000000000E-03 2.367317047E-02 1.000998490E+00
 -2.387827694E-01 -1.000000000E-03 2.429801635E-02 9.966657225E-01
 -2.386545043E-01 -1.000000000E-03 2.415128119E-02 9.996820463E-01
 -2.404625395E-01 -1.000000000E-03 2.629891323E-02 9.601103766E-01
 -2.359108275E-01 -1.000000000E-03 2.133471292E-02 1.009477656E+00
 -2.356852327E-01 -1.000000000E-03 2.111605629E-02 1.009958391E+00
 -2.354095695E-01 -1.000000000E-03 2.085828562E-02 1.009136305E+00
 -2.352164711E-01 -1.000000000E-03 2.067679538E-02 1.008598603E+00
 -2.351234254E-01 -1.000000000E-03 2.058857034E-02 1.008816575E+00
 -2.346512597E-01 -1.000000000E-03 2.015256926E-02 1.007278343E+00
 -2.344730090E-01 -1.000000000E-03 1.998798130E-02 1.007193922E+00
 -2.342071505E-01 -1.000000000E-03 1.974778704E-02 1.006560445E+00
 -2.333150719E-01 -1.000000000E-03 1.896211826E-02 1.003589290E+00
 -2.318232700E-01 -1.000000000E-03 1.769964901E-02 9.939535739E-01
 -2.329895142E-01 -1.000000000E-03 1.867731970E-02 1.001619490E+00
 -2.299034802E-01 -1.000000000E-03 1.615218268E-02 9.922257296E-01
 -2.313603455E-01 -1.000000000E-03 1.731157518E-02 9.919846059E-01
 -2.294972365E-01 -1.000000000E-03 1.582931349E-02 9.904952070E-01
 -2.274614230E-01 -1.000000000E-03 1.429588049E-02 9.642163245E-01
 2.480869596E-01 -1.000000000E-03 1.040831840E-02 1.334105203E-02
 2.309314281E-01 -1.000000000E-03 1.450836528E-02 -6.983360024E-03
 2.381744168E-01 -1.000000000E-03 1.278498962E-02 2.666445417E-03
 2.239721499E-01 -1.000000000E-03 1.614627941E-02 -1.677355185E-02
 2.169819569E-01 -1.000000000E-03 1.778368711E-02 -2.592785802E-02
 2.082337591E-01 -1.000000000E-03 1.981144330E-02 -3.695733298E-02
 2.021835739E-01 -1.000000000E-03 2.119933367E-02 -4.524155976E-02
 1.966098825E-01 -1.000000000E-03 2.247392148E-02 -5.251304886E-02
 1.795480634E-01 -1.000000000E-03 2.630703965E-02 -7.386376842E-02
 1.912863309E-01 -1.000000000E-03 2.367474600E-02 -5.978800119E-02
 1.059685524E-01 -1.000000000E-03 4.175873722E-02 -1.821141466E-01
 1.210152176E-01 -1.000000000E-03 3.875517190E-02 -1.596421841E-01
 1.113623352E-01 -1.000000000E-03 4.068414849E-02 -1.743723066E-01
 1.365894926E-01 -1.000000000E-03 3.555669472E-02 -1.350935169E-01
 1.320216096E-01 -1.000000000E-03 3.650266826E-02 -1.421860074E-01
 1.692672320E-01 -1.000000000E-03 2.856280419E-02 -8.755248271E-02
 1.588175045E-01 -1.000000000E-03 3.084805451E-02 -1.018850055E-01
 1.523498736E-01 -1.000000000E-03 3.222886750E-02 -1.116250181E-01
 1.753121474E-01 -1.000000000E-03 2.724668870E-02 -7.895897563E-02
 4.954630915E-02 -1.000000000E-03 5.217110960E-02 -2.752867949E-01
 6.223269265E-02 -1.000000000E-03 4.995735703E-02 -2.522317545E-01
 9.897755470E-02 -1.000000000E-03 4.311279618E-02 -1.939076502E-01
 7.607873909E-02 -1.000000000E-03 4.745180157E-02 -2.291670423E-01
 6.332671957E-02 -1.000000000E-03 4.975918447E-02 -2.502299175E-01
 8.587904741E-02 -1.000000000E-03 4.561474034E-02 -2.146913809E-01
 9.150671233E-02 -1.000000000E-03 4.456002545E-02 -2.060276645E-01
 4.669758671E-02 -1.000000000E-03 5.265503610E-02 -2.803840025E-01
 3.426738969E-02 -1.000000000E-03 5.473767448E-02 -3.015813943E-01
 2.350638609E-02 -1.000000000E-03 5.646591786E-02 -3.210040590E-01
 4.863483866E-02 -1.000000000E-03 5.233030289E-02 -2.768341216E-01
 2.228380411E-02 -1.000000000E-03 5.666248489E-02 -3.229980481E-01
 2.115378973E-02 -1.000000000E-03 5.683624371E-02 -3.251042264E-01
 1.850586119E-03 -1.000000000E-03 5.975136608E-02 -3.598398379E-01
 -1.021962850E-02 -1.000000000E-03 6.146261334E-02 -3.853275000E-01
 -1.350031694E-02 -1.000000000E-03 6.191511778E-02 -3.927614062E-01
 6.760025420E-03 -1.000000000E-03 5.903577216E-02 -3.509573698E-01
 -2.360266045E-02 -1.000000000E-03 6.323569667E-02 -4.165803204E-01
 -2.787217394E-02 -1.000000000E-03 6.379611476E-02 -4.263137836E-01
 7.385906338E-01 -1.000000000E-03 -1.302356631E-01 4.459893049E-01
 7.385904976E-01 -1.000000000E-03 -1.302356591E-01 4.460161299E-01
 7.385727686E-01 -1.000000000E-03 -1.302351103E-01 4.436525041E-01
 7.385403612E-01 -1.000000000E-03 -1.302341071E-01 4.441226745E-01
 7.384453011E-01 -1.000000000E-03 -1.302311646E-01 4.446894292E-01
 7.385398841E-01 -1.000000000E-03 -1.302340927E-01 4.441224712E-01
 7.382460303E-01 -1.000000000E-03 -1.302249972E-01 4.438593370E-01
 7.384434078E-01 -1.000000000E-03 -1.302311088E-01 4.447185304E-01
 7.382407105E-01 -1.000000000E-03 -1.302248368E-01 4.438739282E-01
 7.378314148E-01 -1.000000000E-03 -1.302121551E-01 4.427876331E-01
 3.234343039E-01 -1.000000000E-03 -1.043147033E-01 3.564222624E-01
 3.340744437E-01 -1.000000000E-03 -1.053043365E-01 3.562052333E-01
 3.448746780E-01 -1.000000000E-03 -1.062906920E-01 3.546132537E-01
 3.113879524E-01 -1.000000000E-03 -1.031683983E-01 3.561188232E-01
 3.232240152E-01 -1.000000000E-03 -1.042949975E-01 3.564256949E-01
 3.233243975E-01 -1.000000000E-03 -1.043044714E-01 3.564132642E-01
 3.009962125E-01 -1.000000000E-03 -1.021565090E-01 3.571431904E-01
 3.112434103E-01 -1.000000000E-03 -1.031545204E-01 3.561247413E-01
 2.920652288E-01 -1.000000000E-03 -1.012739549E-01 3.565609702E-01
 3.008386724E-01 -1.000000000E-03 -1.021410991E-01 3.571326219E-01
 2.919106566E-01 -1.000000000E-03 -1.012585685E-01 3.565525847E-01
 2.738680761E-01 -1.000000000E-03 -9.942276223E-02 3.587848236E-01
 2.825098176E-01 -1.000000000E-03 -1.003091978E-01 3.582343860E-01
 2.826641592E-01 -1.000000000E-03 -1.003248286E-01 3.581965825E-01
 3.450041559E-01 -1.000000000E-03 -1.063025302E-01 3.545953174E-01
 3.451234635E-01 -1.000000000E-03 -1.063132701E-01 3.546116048E-01
 2.737036429E-01 -1.000000000E-03 -9.940579351E-02 3.587914902E-01
 2.622130606E-01 -1.000000000E-03 -9.820494407E-02 3.596371798E-01
 2.620082890E-01 -1.000000000E-03 -9.818338968E-02 3.596726717E-01
 2.535972251E-01 -1.000000000E-03 -9.728195808E-02 3.615159382E-01
 2.534055758E-01 -1.000000000E-03 -9.726140323E-02 3.615578464E-01
 2.484313412E-01 -1.000000000E-03 -9.672439545E-02 3.607070042E-01
 2.481973359E-01 -1.000000000E-03 -9.669885011E-02 3.607425336E-01
 2.394080475E-01 -1.000000000E-03 -9.573205924E-02 3.609963049E-01
 2.177969574E-01 -1.000000000E-03 -9.328570470E-02 3.665907194E-01
 2.083224826E-01 -1.000000000E-03 -9.217614765E-02 3.662498870E-01
 2.176961815E-01 -1.000000000E-03 -9.327396907E-02 3.666008614E-01
 2.391202713E-01 -1.000000000E-03 -9.570007976E-02 3.610826436E-01
 2.284815970E-01 -1.000000000E-03 -9.450983658E-02 3.637249190E-01
 2.282130631E-01 -1.000000000E-03 -9.447945737E-02 3.637211912E-01
 2.082017680E-01 -1.000000000E-03 -9.216185882E-02 3.662887418E-01
 2.008684242E-01 -1.000000000E-03 -9.129194240E-02 3.685432679E-01
 2.179264096E-01 -1.000000000E-03 -9.330060540E-02 3.665793379E-01
 2.007277539E-01 -1.000000000E-03 -9.127502397E-02 3.685953746E-01
 1.931705238E-01 -1.000000000E-03 -9.035766438E-02 3.708636470E-01
 1.929897355E-01 -1.000000000E-03 -9.033561052E-02 3.708655704E-01
 1.840791284E-01 -1.000000000E-03 -8.924004501E-02 3.714917131E-01
 1.838551587E-01 -1.000000000E-03 -8.921223011E-02 3.715247637E-01
 5.791086798E-01 -1.000000000E-03 -1.232953216E-01 3.762751160E-01
 5.715028597E-01 -1.000000000E-03 -1.228647063E-01 3.756348642E-01
 5.873268685E-01 -1.000000000E-03 -1.237467585E-01 3.773831983E-01
 5.711904299E-01 -1.000000000E-03 -1.228470273E-01 3.755638788E-01
 5.461326279E-01 -1.000000000E-03 -1.213772968E-01 3.700713607E-01
 5.458516581E-01 -1.000000000E-03 -1.213602739E-01 3.700483327E-01
 5.569708677E-01 -1.000000000E-03 -1.220231455E-01 3.722499296E-01
 5.567570033E-01 -1.000000000E-03 -1.220106378E-01 3.721809625E-01
 5.324419140E-01 -1.000000000E-03 -1.205364518E-01 3.687534354E-01
 5.319442435E-01 -1.000000000E-03 -1.205051504E-01 3.686771456E-01
 5.240542098E-01 -1.000000000E-03 -1.200062053E-01 3.673729825E-01
 5.106042000E-01 -1.000000000E-03 -1.191379459E-01 3.647200523E-01
 5.101794064E-01 -1.000000000E-03 -1.191104244E-01 3.646230497E-01
 5.100390895E-01 -1.000000000E-03 -1.191012037E-01 3.646091270E-01
 4.971442180E-01 -1.000000000E-03 -1.182447993E-01 3.611250391E-01
 4.969896798E-01 -1.000000000E-03 -1.182344186E-01 3.610981767E-01
 4.899146884E-01 -1.000000000E-03 -1.177533171E-01 3.606883517E-01
 4.897732463E-01 -1.000000000E-03 -1.177436175E-01 3.606793482E-01
 4.821551432E-01 -1.000000000E-03 -1.172195077E-01 3.601955876E-01
 4.820029449E-01 -1.000000000E-03 -1.172088685E-01 3.601897952E-01
 4.512202374E-01 -1.000000000E-03 -1.150023004E-01 3.575826466E-01
 4.514107749E-01 -1.000000000E-03 -1.150163957E-01 3.576211010E-01
 4.600019314E-01 -1.000000000E-03 -1.156439945E-01 3.586812630E-01
 4.597990858E-01 -1.000000000E-03 -1.156292490E-01 3.586414517E-01
 4.721099139E-01 -1.000000000E-03 -1.165136056E-01 3.604125286E-01
 4.718673823E-01 -1.000000000E-03 -1.164963185E-01 3.604148910E-01
 4.408412731E-01 -1.000000000E-03 -1.142261806E-01 3.563168098E-01
 7.386006151E-01 -1.000000000E-03 -1.302344209E-01 4.468373009E-01
 7.385786030E-01 -1.000000000E-03 -1.302271733E-01 4.458717897E-01
 7.385787020E-01 -1.000000000E-03 -1.302272059E-01 4.459023125E-01
 7.385784036E-01 -1.000000000E-03 -1.302271074E-01 4.458970810E-01
 7.385759072E-01 -1.000000000E-03 -1.302262828E-01 4.458333130E-01
 7.385776801E-01 -1.000000000E-03 -1.302268685E-01 4.458954871E-01
 7.386005816E-01 -1.000000000E-03 -1.302344098E-01 4.468754852E-01
 7.353330319E-01 -1.000000000E-03 -1.301345103E-01 4.443345174E-01
 7.372156060E-01 -1.000000000E-03 -1.301931199E-01 4.444102106E-01
 7.378196514E-01 -1.000000000E-03 -1.302118008E-01 4.427876285E-01
 7.372702981E-01 -1.000000000E-03 -1.301947648E-01 4.444802146E-01
 7.351668106E-01 -1.000000000E-03 -1.301294555E-01 4.440179845E-01
 7.319495112E-01 -1.000000000E-03 -1.300284470E-01 4.414241799E-01
 7.316963574E-01 -1.000000000E-03 -1.300204274E-01 4.412949220E-01
 4.066217457E-01 -1.000000000E-03 -1.115604205E-01 3.559738887E-01
 4.157470942E-01 -1.000000000E-03 -1.122876498E-01 3.561057038E-01
 3.559840515E-01 -1.000000000E-03 -1.072856364E-01 3.574760023E-01
 4.406031033E-01 -1.000000000E-03 -1.142082065E-01 3.563034683E-01
 4.333665480E-01 -1.000000000E-03 -1.136589392E-01 3.572100097E-01
 4.259197849E-01 -1.000000000E-03 -1.130844771E-01 3.565477471E-01
 3.764926996E-01 -1.000000000E-03 -1.090648551E-01 3.555257263E-01
 3.676138539E-01 -1.000000000E-03 -1.083020063E-01 3.529265089E-01
 3.878700636E-01 -1.000000000E-03 -1.100248944E-01 3.543772066E-01
 3.766503085E-01 -1.000000000E-03 -1.090783151E-01 3.555412504E-01
 3.561955533E-01 -1.000000000E-03 -1.073042997E-01 3.574639682E-01
 3.880227463E-01 -1.000000000E-03 -1.100377036E-01 3.543754360E-01
 3.881994547E-01 -1.000000000E-03 -1.100522841E-01 3.543944870E-01
 3.674808801E-01 -1.000000000E-03 -1.082904733E-01 3.529673096E-01
 4.256809841E-01 -1.000000000E-03 -1.130660047E-01 3.565295061E-01
 4.159132632E-01 -1.000000000E-03 -1.123007974E-01 3.560874129E-01
 4.064066665E-01 -1.000000000E-03 -1.115430337E-01 3.559609908E-01
 3.988669818E-01 -1.000000000E-03 -1.109305833E-01 3.548997359E-01
 6.302276509E-02 -1.000000000E-03 -7.190483299E-02 4.076742226E-01
 5.429850057E-02 -1.000000000E-03 -7.044747909E-02 4.108003677E-01
 6.293525775E-02 -1.000000000E-03 -7.189024050E-02 4.076771822E-01
 5.417939828E-02 -1.000000000E-03 -7.042724300E-02 4.108781299E-01
 6.313064187E-02 -1.000000000E-03 -7.192253805E-02 4.076154907E-01
 6.860725857E-02 -1.000000000E-03 -7.282178772E-02 4.051019364E-01