TITLE     = "Translation of CGNS file naca0012Flow00000315.cgns"
VARIABLES = "x"
"y"
"z"
"Cp"
DATASETAUXDATA Common.DensityVar="4"
DATASETAUXDATA Common.PressureVar="10"
DATASETAUXDATA Common.TemperatureVar="9"
DATASETAUXDATA Common.UVar="5"
DATASETAUXDATA Common.VectorVarsAreVelocity="TRUE"
DATASETAUXDATA Common.VVar="6"
DATASETAUXDATA Common.WVar="7"
ZONE T="COFFE, MIT adapt Y=-0.001"
 STRANDID=6, SOLUTIONTIME=315
 Nodes=334, Elements=334, ZONETYPE=FELineSeg
 DATAPACKING=POINT
 AUXDATA CGNS.CGNSBase_t="Base"
 AUXDATA CGNS.Zone_t="Zone"
 DT=(DOUBLE DOUBLE DOUBLE DOUBLE )
 7.272104109E-01 -1.000000000E-03 -1.298778420E-01 4.107150681E-01
 7.270089693E-01 -1.000000000E-03 -1.298714750E-01 4.105436584E-01
 7.313441798E-01 -1.000000000E-03 -1.300092328E-01 4.115612275E-01
 7.350035974E-01 -1.000000000E-03 -1.301242360E-01 4.119836681E-01
 7.350702088E-01 -1.000000000E-03 -1.301262472E-01 4.119583850E-01
 7.366010873E-01 -1.000000000E-03 -1.301739738E-01 4.120742290E-01
 7.366207722E-01 -1.000000000E-03 -1.301745819E-01 4.121472308E-01
 7.382487801E-01 -1.000000000E-03 -1.302250908E-01 4.088223589E-01
 7.376234919E-01 -1.000000000E-03 -1.302057149E-01 4.020641441E-01
 7.382583706E-01 -1.000000000E-03 -1.302253788E-01 4.086959988E-01
 7.382608898E-01 -1.000000000E-03 -1.302254548E-01 4.086943885E-01
 7.384772088E-01 -1.000000000E-03 -1.302321528E-01 4.078070105E-01
 7.384781632E-01 -1.000000000E-03 -1.302321819E-01 4.078327538E-01
 7.385764031E-01 -1.000000000E-03 -1.302352230E-01 4.074709426E-01
 7.385767694E-01 -1.000000000E-03 -1.302352340E-01 4.074252814E-01
 7.385987223E-01 -1.000000000E-03 -1.302359135E-01 4.106696960E-01
 7.386058150E-01 -1.000000000E-03 -1.302361330E-01 4.150915621E-01
 7.385988054E-01 -1.000000000E-03 -1.302359161E-01 4.106768550E-01
 7.386057868E-01 -1.000000000E-03 -1.302361321E-01 4.151763397E-01
 7.386057990E-01 -1.000000000E-03 -1.302361277E-01 4.151647190E-01
 7.386026210E-01 -1.000000000E-03 -1.302350813E-01 4.144165437E-01
 7.385985491E-01 -1.000000000E-03 -1.302337407E-01 4.137622546E-01
 7.385824870E-01 -1.000000000E-03 -1.302284521E-01 4.157550580E-01
 7.385985118E-01 -1.000000000E-03 -1.302337283E-01 4.137548931E-01
 7.385825489E-01 -1.000000000E-03 -1.302284725E-01 4.157918759E-01
 7.385820228E-01 -1.000000000E-03 -1.302282988E-01 4.157856995E-01
 7.382892438E-01 -1.000000000E-03 -1.301319031E-01 4.144553913E-01
 7.382828667E-01 -1.000000000E-03 -1.301297971E-01 4.144078485E-01
 4.875681510E-01 -1.000000000E-03 -1.175929387E-01 3.569027794E-01
 4.872653168E-01 -1.000000000E-03 -1.175719830E-01 3.568383746E-01
 4.649926284E-01 -1.000000000E-03 -1.160053922E-01 3.540711858E-01
 4.878590891E-01 -1.000000000E-03 -1.176123984E-01 3.569037210E-01
 4.339091259E-01 -1.000000000E-03 -1.137005387E-01 3.529297196E-01
 4.513249557E-01 -1.000000000E-03 -1.150100635E-01 3.539462334E-01
 4.514775344E-01 -1.000000000E-03 -1.150213224E-01 3.539528694E-01
 4.647703757E-01 -1.000000000E-03 -1.159894868E-01 3.540897946E-01
 4.337184451E-01 -1.000000000E-03 -1.136859133E-01 3.529183290E-01
 4.191664583E-01 -1.000000000E-03 -1.125585078E-01 3.532754662E-01
 4.189290469E-01 -1.000000000E-03 -1.125395900E-01 3.532814599E-01
 3.971450707E-01 -1.000000000E-03 -1.107894943E-01 3.540062729E-01
 3.698970118E-01 -1.000000000E-03 -1.084997818E-01 3.494911515E-01
 3.696793664E-01 -1.000000000E-03 -1.084811275E-01 3.494418210E-01
 3.968821848E-01 -1.000000000E-03 -1.107677976E-01 3.539965919E-01
 3.517507098E-01 -1.000000000E-03 -1.069077033E-01 3.525330925E-01
 3.515429803E-01 -1.000000000E-03 -1.068891085E-01 3.525664967E-01
 3.370516402E-01 -1.000000000E-03 -1.055787017E-01 3.511308222E-01
 3.169686344E-01 -1.000000000E-03 -1.037007963E-01 3.487424601E-01
 3.167671291E-01 -1.000000000E-03 -1.036819904E-01 3.487423341E-01
 3.018711646E-01 -1.000000000E-03 -1.022421648E-01 3.522306918E-01
 3.017478629E-01 -1.000000000E-03 -1.022302713E-01 3.522332245E-01
 3.016209621E-01 -1.000000000E-03 -1.022177479E-01 3.522486380E-01
 2.844687674E-01 -1.000000000E-03 -1.005077206E-01 3.514486569E-01
 2.843206555E-01 -1.000000000E-03 -1.004926166E-01 3.514256168E-01
 2.724542124E-01 -1.000000000E-03 -9.927584975E-02 3.537937057E-01
 2.484841829E-01 -1.000000000E-03 -9.672990895E-02 3.603477073E-01
 2.480876808E-01 -1.000000000E-03 -9.668690670E-02 3.603561073E-01
 2.722542646E-01 -1.000000000E-03 -9.925490977E-02 3.539022313E-01
 2.349117705E-01 -1.000000000E-03 -9.523200130E-02 3.594277316E-01
 2.347448890E-01 -1.000000000E-03 -9.521320976E-02 3.594608509E-01
 2.225119289E-01 -1.000000000E-03 -9.382756314E-02 3.612697993E-01
 2.226417761E-01 -1.000000000E-03 -9.384253942E-02 3.612481871E-01
 1.709169078E-01 -1.000000000E-03 -8.758114362E-02 3.732631397E-01
 1.707255553E-01 -1.000000000E-03 -8.755677433E-02 3.733032264E-01
 1.348641549E-01 -1.000000000E-03 -8.277414092E-02 3.784731031E-01
 1.346540741E-01 -1.000000000E-03 -8.274516801E-02 3.785176018E-01
 1.347524826E-01 -1.000000000E-03 -8.275894967E-02 3.784769428E-01
 2.107138433E-01 -1.000000000E-03 -9.245832043E-02 3.641991945E-01
 2.105944739E-01 -1.000000000E-03 -9.244422384E-02 3.642272669E-01
 1.861049092E-01 -1.000000000E-03 -8.949274161E-02 3.669074530E-01
 1.859191654E-01 -1.000000000E-03 -8.946978880E-02 3.669117298E-01
 1.530609159E-01 -1.000000000E-03 -8.524867252E-02 3.756698642E-01
 1.532017146E-01 -1.000000000E-03 -8.526721229E-02 3.756399049E-01
 1.978210020E-01 -1.000000000E-03 -9.092334740E-02 3.679079369E-01
 1.979274604E-01 -1.000000000E-03 -9.093620516E-02 3.678751099E-01
 1.082348202E-01 -1.000000000E-03 -7.896340916E-02 3.922371575E-01
 1.084297020E-01 -1.000000000E-03 -7.899253902E-02 3.921733402E-01
 1.250781128E-01 -1.000000000E-03 -8.140378746E-02 3.847434649E-01
 1.249055585E-01 -1.000000000E-03 -8.137884883E-02 3.848129190E-01
 9.086206259E-02 -1.000000000E-03 -7.634660392E-02 3.969201428E-01
 9.063933490E-02 -1.000000000E-03 -7.631210938E-02 3.969784238E-01
 7.372541417E-02 -1.000000000E-03 -7.364946390E-02 4.058711377E-01
 7.383355466E-02 -1.000000000E-03 -7.366676123E-02 4.058059898E-01
 7.359177293E-02 -1.000000000E-03 -7.362759624E-02 4.059172769E-01
 -2.148568958E-01 -1.000000000E-03 6.540429759E-02 -1.183800921E+00
 -2.196314214E-01 -1.000000000E-03 6.405716373E-02 -1.229752325E+00
 -2.102394627E-01 -1.000000000E-03 6.646272672E-02 -1.133139760E+00
 -2.204465598E-01 -1.000000000E-03 6.381403110E-02 -1.241909950E+00
 -2.234742126E-01 -1.000000000E-03 6.280827680E-02 -1.299674701E+00
 -2.246755059E-01 -1.000000000E-03 6.236956745E-02 -1.309845189E+00
 -2.270481070E-01 -1.000000000E-03 6.146220695E-02 -1.346373135E+00
 -2.277833777E-01 -1.000000000E-03 6.114334923E-02 -1.354937229E+00
 -2.310038711E-01 -1.000000000E-03 5.969339596E-02 -1.366469450E+00
 -2.297053532E-01 -1.000000000E-03 6.031132250E-02 -1.382712046E+00
 -2.324647973E-01 -1.000000000E-03 5.893984757E-02 -1.408601718E+00
 -2.349980880E-01 -1.000000000E-03 5.752106781E-02 -1.480736984E+00
 -2.335358781E-01 -1.000000000E-03 5.837422574E-02 -1.464080207E+00
 -2.351770080E-01 -1.000000000E-03 5.741436798E-02 -1.473372021E+00
 -2.354203293E-01 -1.000000000E-03 5.725252781E-02 -1.482086428E+00
 -2.370213159E-01 -1.000000000E-03 5.619975877E-02 -1.468679441E+00
 -2.376926540E-01 -1.000000000E-03 5.570895108E-02 -1.501186364E+00
 -2.384540882E-01 -1.000000000E-03 5.513932879E-02 -1.422497819E+00
 -2.389877043E-01 -1.000000000E-03 5.470184739E-02 -1.406200742E+00
 -2.398043671E-01 -1.000000000E-03 5.401516530E-02 -1.488441518E+00
 -2.409936238E-01 -1.000000000E-03 5.289676395E-02 -1.512406502E+00
 -2.402711141E-01 -1.000000000E-03 5.358961247E-02 -1.528176416E+00
 -2.413988972E-01 -1.000000000E-03 5.247067466E-02 -1.455109509E+00
 -2.412136503E-01 -1.000000000E-03 5.267365832E-02 -1.474416356E+00
 -2.419474495E-01 -1.000000000E-03 5.188306362E-02 -1.337045879E+00
 -1.904330607E-01 -1.000000000E-03 6.971832232E-02 -9.533803052E-01
 -1.940319765E-01 -1.000000000E-03 6.931409585E-02 -9.790497376E-01
 -1.961767156E-01 -1.000000000E-03 6.902867504E-02 -9.970355528E-01
 -1.848931814E-01 -1.000000000E-03 7.037945217E-02 -9.112674875E-01
 -1.801129376E-01 -1.000000000E-03 7.077469340E-02 -8.885845344E-01
 -2.082897882E-01 -1.000000000E-03 6.692826412E-02 -1.103949019E+00
 -2.027539341E-01 -1.000000000E-03 6.798828397E-02 -1.076232930E+00
 -2.039801730E-01 -1.000000000E-03 6.775757409E-02 -1.084566607E+00
 -2.019714123E-01 -1.000000000E-03 6.811307324E-02 -1.066260874E+00
 7.373778111E-01 -1.000000000E-03 -1.298318525E-01 4.216344549E-01
 7.373531789E-01 -1.000000000E-03 -1.298237205E-01 4.215247686E-01
 7.372004200E-01 -1.000000000E-03 -1.297733705E-01 4.214918607E-01
 -1.024986418E-01 -1.000000000E-03 7.087645683E-02 -5.861877106E-01
 -1.110213215E-01 -1.000000000E-03 7.132483469E-02 -6.082652950E-01
 -1.519184840E-01 -1.000000000E-03 7.209610908E-02 -7.537609244E-01
 -1.441010773E-01 -1.000000000E-03 7.217910149E-02 -7.236402371E-01
 -1.362717547E-01 -1.000000000E-03 7.211828618E-02 -6.912364641E-01
 -1.167176725E-01 -1.000000000E-03 7.158676505E-02 -6.272918950E-01
 -1.323385292E-01 -1.000000000E-03 7.205544554E-02 -6.761361768E-01
 -1.558937158E-01 -1.000000000E-03 7.204424064E-02 -7.693687178E-01
 -1.652567592E-01 -1.000000000E-03 7.173837539E-02 -8.005193446E-01
 -9.620006668E-02 -1.000000000E-03 7.048495059E-02 -5.732762534E-01
 -7.814222870E-02 -1.000000000E-03 6.911906321E-02 -5.300154273E-01
 -1.665036631E-01 -1.000000000E-03 7.167430608E-02 -8.079682197E-01
 -1.757315275E-01 -1.000000000E-03 7.115034741E-02 -8.729848276E-01
 -7.586114990E-02 -1.000000000E-03 6.893467355E-02 -5.249333846E-01
 -5.920013635E-02 -1.000000000E-03 6.725000632E-02 -4.802213475E-01
 -7.451487067E-02 -1.000000000E-03 6.879436146E-02 -5.215417866E-01
 -4.513250710E-02 -1.000000000E-03 6.584029662E-02 -4.425151911E-01
 -4.322402408E-02 -1.000000000E-03 6.564171811E-02 -4.374091808E-01
 -4.116733242E-02 -1.000000000E-03 6.539423510E-02 -4.334522292E-01
 2.354963317E-02 -1.000000000E-03 5.644674170E-02 -3.156274460E-01
 6.557529936E-05 -1.000000000E-03 6.001494191E-02 -3.572907792E-01
 -2.300085783E-02 -1.000000000E-03 6.317201499E-02 -4.021308037E-01
 -6.650930613E-03 -1.000000000E-03 6.094646006E-02 -3.705497582E-01
 2.956202274E-02 -1.000000000E-03 5.549456241E-02 -3.029783695E-01
 4.657594757E-02 -1.000000000E-03 5.267523822E-02 -2.691420040E-01
 -2.456733175E-01 -1.000000000E-03 4.551656270E-02 -8.513525084E-01
 -2.453618346E-01 -1.000000000E-03 4.639896349E-02 -9.349793537E-01
 -2.441002676E-01 -1.000000000E-03 4.895509538E-02 -1.178208752E+00
 -2.443096796E-01 -1.000000000E-03 4.858569590E-02 -1.183811755E+00
 -2.429147473E-01 -1.000000000E-03 5.069799850E-02 -1.360488816E+00
 -2.434147525E-01 -1.000000000E-03 5.001689186E-02 -1.247286902E+00
 -2.420704435E-01 -1.000000000E-03 5.173496824E-02 -1.354455882E+00
 -2.427705680E-01 -1.000000000E-03 5.088993095E-02 -1.390897515E+00
 -2.435729833E-01 -1.000000000E-03 4.977851738E-02 -1.245027121E+00
 -2.448384805E-01 -1.000000000E-03 4.758565319E-02 -1.096803714E+00
 -2.452541835E-01 -1.000000000E-03 4.666321148E-02 -9.546924352E-01
 -2.447210106E-01 -1.000000000E-03 4.783196578E-02 -1.181433715E+00
 -2.459935734E-01 -1.000000000E-03 4.440020448E-02 -6.814388881E-01
 -2.457419693E-01 -1.000000000E-03 4.530519376E-02 -8.103522064E-01
 -2.459532728E-01 -1.000000000E-03 4.455468397E-02 -6.903039471E-01
 -2.462332925E-01 -1.000000000E-03 4.318312530E-02 -5.139658450E-01
 -2.462019380E-01 -1.000000000E-03 4.341204442E-02 -5.558211311E-01
 -2.463691323E-01 -1.000000000E-03 4.214301484E-02 -3.043016293E-01
 -2.463859009E-01 -1.000000000E-03 4.174705597E-02 -2.616116549E-01
 -2.463463221E-01 -1.000000000E-03 3.895584600E-02 6.458693688E-02
 -2.462271715E-01 -1.000000000E-03 3.810218650E-02 1.958974750E-01
 -2.464056606E-01 -1.000000000E-03 3.974832699E-02 -1.557077641E-02
 -2.464236416E-01 -1.000000000E-03 4.006686679E-02 -6.581015840E-02
 -2.464346639E-01 -1.000000000E-03 4.076973535E-02 -2.426317781E-01
 -2.460217721E-01 -1.000000000E-03 4.426267251E-02 -6.549414801E-01
 -2.461658378E-01 -1.000000000E-03 3.770950341E-02 2.496652887E-01
 7.201212560E-01 -1.000000000E-03 -1.241712081E-01 4.162602955E-01
 7.057395412E-01 -1.000000000E-03 -1.195007564E-01 4.068612229E-01
 7.317071964E-01 -1.000000000E-03 -1.279669286E-01 4.218330960E-01
 7.217780889E-01 -1.000000000E-03 -1.247115078E-01 4.172840388E-01
 7.311040753E-01 -1.000000000E-03 -1.277688297E-01 4.217026778E-01
 -2.393775048E-01 -1.000000000E-03 2.497408051E-02 1.003436550E+00
 -2.407026951E-01 -1.000000000E-03 2.657793094E-02 9.357105497E-01
 -2.392476738E-01 -1.000000000E-03 2.482119483E-02 1.006078174E+00
 -2.377560149E-01 -1.000000000E-03 2.318831112E-02 9.990197933E-01
 -2.376577555E-01 -1.000000000E-03 2.308235091E-02 1.000007975E+00
 -2.360621529E-01 -1.000000000E-03 2.148181834E-02 9.941569535E-01
 -2.359506305E-01 -1.000000000E-03 2.137180401E-02 9.939515659E-01
 -2.336130674E-01 -1.000000000E-03 1.922735330E-02 9.848722010E-01
 -2.294860633E-01 -1.000000000E-03 1.582108485E-02 9.808392845E-01
 -2.334707790E-01 -1.000000000E-03 1.909795862E-02 9.845216604E-01
 -2.295523928E-01 -1.000000000E-03 1.587752861E-02 9.813047013E-01
 -2.294074268E-01 -1.000000000E-03 1.576008285E-02 9.801434046E-01
 -2.246585256E-01 -1.000000000E-03 1.229409980E-02 9.380421489E-01
 6.999840466E-01 -1.000000000E-03 -1.176443090E-01 4.037494183E-01
 6.696778460E-01 -1.000000000E-03 -1.079946620E-01 3.893406625E-01
 6.558658967E-01 -1.000000000E-03 -1.036106511E-01 3.818591441E-01
 6.323435363E-01 -1.000000000E-03 -9.630368518E-02 3.641641028E-01
 6.024723698E-01 -1.000000000E-03 -8.710523463E-02 3.449365481E-01
 5.949233497E-01 -1.000000000E-03 -8.480286144E-02 3.401699870E-01
 5.748142933E-01 -1.000000000E-03 -7.877316296E-02 3.251008434E-01
 5.472865319E-01 -1.000000000E-03 -7.053296933E-02 3.046748567E-01
 4.889587755E-01 -1.000000000E-03 -5.359944941E-02 2.555264410E-01
 4.818039385E-01 -1.000000000E-03 -5.151121147E-02 2.495882685E-01
 4.465357297E-01 -1.000000000E-03 -4.156233198E-02 2.193319463E-01
 4.760432777E-01 -1.000000000E-03 -4.986498857E-02 2.446590767E-01
 4.360264329E-01 -1.000000000E-03 -3.860374799E-02 2.103022385E-01
 4.351629953E-01 -1.000000000E-03 -3.836466310E-02 2.094810223E-01
 4.048627994E-01 -1.000000000E-03 -3.002528405E-02 1.816458942E-01
 3.861034559E-01 -1.000000000E-03 -2.496970297E-02 1.645534835E-01
 3.973530231E-01 -1.000000000E-03 -2.797708061E-02 1.755978522E-01
 3.465051452E-01 -1.000000000E-03 -1.440127475E-02 1.248152818E-01
 2.986958387E-01 -1.000000000E-03 -2.111029493E-03 7.477550980E-02
 3.182520039E-01 -1.000000000E-03 -7.070781947E-03 9.553542982E-02
 3.432048699E-01 -1.000000000E-03 -1.354421024E-02 1.213468409E-01
 2.852922073E-01 -1.000000000E-03 1.272128598E-03 6.039336002E-02
 2.631784333E-01 -1.000000000E-03 6.742762937E-03 3.413762153E-02
 2.330166451E-01 -1.000000000E-03 1.400207105E-02 -9.145301128E-04
 2.282585201E-01 -1.000000000E-03 1.513776428E-02 -6.493904954E-03
 2.293242694E-01 -1.000000000E-03 1.488889231E-02 -5.122324837E-03
 2.032765718E-01 -1.000000000E-03 2.095211849E-02 -3.808510055E-02
 1.979887532E-01 -1.000000000E-03 2.214970687E-02 -4.436807998E-02
 1.463439250E-01 -1.000000000E-03 3.351141637E-02 -1.146931466E-01
 1.323368286E-01 -1.000000000E-03 3.643027363E-02 -1.353352673E-01
 1.496563738E-01 -1.000000000E-03 3.280500925E-02 -1.102928518E-01
 1.679839796E-01 -1.000000000E-03 2.885663706E-02 -8.484951004E-02
 1.668468556E-01 -1.000000000E-03 2.910555800E-02 -8.667039461E-02
 1.621838393E-01 -1.000000000E-03 3.010844597E-02 -9.288940506E-02
 1.200353278E-01 -1.000000000E-03 3.895144789E-02 -1.542966688E-01
 1.049905714E-01 -1.000000000E-03 4.193475521E-02 -1.775907466E-01
 8.879550777E-02 -1.000000000E-03 4.505406582E-02 -2.032040242E-01
 7.175431417E-02 -1.000000000E-03 4.823262580E-02 -2.322042656E-01
 9.862521003E-02 -1.000000000E-03 4.319149347E-02 -1.876140848E-01
 5.665655611E-02 -1.000000000E-03 5.093155337E-02 -2.563377730E-01
 -2.447694766E-01 -1.000000000E-03 3.320233243E-02 6.628366958E-01
 -2.452807259E-01 -1.000000000E-03 3.449293435E-02 5.891204413E-01
 -2.458154374E-01 -1.000000000E-03 3.617310449E-02 3.947191543E-01
 -2.453943074E-01 -1.000000000E-03 3.479686327E-02 5.810084799E-01
 -2.437218316E-01 -1.000000000E-03 3.108703240E-02 8.058098929E-01
 -2.438732048E-01 -1.000000000E-03 3.136411922E-02 7.923164992E-01
 -2.425937363E-01 -1.000000000E-03 2.923278625E-02 8.906257885E-01
 -2.423602406E-01 -1.000000000E-03 2.885882999E-02 9.164087217E-01
 -2.409218948E-01 -1.000000000E-03 2.687890512E-02 9.335423471E-01
 -2.459143046E-01 -1.000000000E-03 3.654952487E-02 3.541921098E-01
 -2.446262618E-01 -1.000000000E-03 3.288731442E-02 6.951824050E-01
 -2.165280622E-01 -1.000000000E-03 7.074023848E-03 8.565731808E-01
 -2.092773848E-01 -1.000000000E-03 2.943063306E-03 8.301470621E-01
 -1.350768448E-01 -1.000000000E-03 -2.706423183E-02 5.821303655E-01
 -1.348730917E-01 -1.000000000E-03 -2.712859874E-02 5.818870903E-01
 -1.599449341E-01 -1.000000000E-03 -1.859473019E-02 6.366555569E-01
 -1.662809592E-01 -1.000000000E-03 -1.624413214E-02 6.569310818E-01
 -1.661889062E-01 -1.000000000E-03 -1.627919898E-02 6.566702461E-01
 -1.660605531E-01 -1.000000000E-03 -1.632599561E-02 6.563512339E-01
 -1.511821640E-01 -1.000000000E-03 -2.170673739E-02 6.128977792E-01
 -1.435077737E-01 -1.000000000E-03 -2.431446434E-02 6.098292586E-01
 -1.512482760E-01 -1.000000000E-03 -2.168419070E-02 6.129853202E-01
 -1.213083390E-01 -1.000000000E-03 -3.132637187E-02 5.760075539E-01
 -1.212246665E-01 -1.000000000E-03 -3.135156221E-02 5.759587809E-01
 -1.770947938E-01 -1.000000000E-03 -1.201214846E-02 6.795936509E-01
 -1.722290570E-01 -1.000000000E-03 -1.395331810E-02 6.670171854E-01
 -1.770078050E-01 -1.000000000E-03 -1.204665986E-02 6.793379735E-01
 -1.513146296E-01 -1.000000000E-03 -2.166094170E-02 6.131758001E-01
 -1.434287883E-01 -1.000000000E-03 -2.434063096E-02 6.095004350E-01
 -2.245885103E-01 -1.000000000E-03 1.224437700E-02 9.380507486E-01
 -2.245218989E-01 -1.000000000E-03 1.220010050E-02 9.367925473E-01
 -2.214434545E-01 -1.000000000E-03 1.013881086E-02 9.003009401E-01
 -1.844553767E-01 -1.000000000E-03 -8.944284120E-03 6.997145165E-01
 -1.845261819E-01 -1.000000000E-03 -8.913734566E-03 7.001108016E-01
 -1.771674801E-01 -1.000000000E-03 -1.198213755E-02 6.797628115E-01
 -1.892391414E-01 -1.000000000E-03 -6.856060899E-03 7.385011483E-01
 -1.955814327E-01 -1.000000000E-03 -3.954928016E-03 7.533560613E-01
 -1.956825424E-01 -1.000000000E-03 -3.908966596E-03 7.536530942E-01
 -2.012808382E-01 -1.000000000E-03 -1.203335950E-03 7.815200628E-01
 -2.013690994E-01 -1.000000000E-03 -1.158356190E-03 7.819736265E-01
 -1.957457854E-01 -1.000000000E-03 -3.878571409E-03 7.540099048E-01
 -2.186897747E-01 -1.000000000E-03 8.390826867E-03 8.980379037E-01
 -2.186418972E-01 -1.000000000E-03 8.360601504E-03 8.983911443E-01
 -2.186134353E-01 -1.000000000E-03 8.343322245E-03 8.979707104E-01
 -2.165854165E-01 -1.000000000E-03 7.107450969E-03 8.568904871E-01
 -2.091767979E-01 -1.000000000E-03 2.887978909E-03 8.296353208E-01
 -9.500198140E-02 -1.000000000E-03 -3.879366620E-02 5.187481431E-01
 -9.514034900E-02 -1.000000000E-03 -3.875660515E-02 5.188488822E-01
 -8.301560665E-02 -1.000000000E-03 -4.194587946E-02 5.141687314E-01
 -8.344651864E-02 -1.000000000E-03 -4.183594724E-02 5.147662882E-01
 -8.325846130E-02 -1.000000000E-03 -4.188478178E-02 5.146188589E-01
 -6.512509482E-02 -1.000000000E-03 -4.640327510E-02 4.888162751E-01
 -6.536747758E-02 -1.000000000E-03 -4.634451853E-02 4.888474627E-01
 -5.245867156E-02 -1.000000000E-03 -4.939348718E-02 4.695220661E-01
 -5.232975619E-02 -1.000000000E-03 -4.942370292E-02 4.692174889E-01
 -1.048727103E-01 -1.000000000E-03 -3.608615236E-02 5.340561734E-01
 -1.050095684E-01 -1.000000000E-03 -3.604797651E-02 5.343304746E-01
 -1.049479647E-01 -1.000000000E-03 -3.606539399E-02 5.341853313E-01
 -1.144701145E-01 -1.000000000E-03 -3.334671493E-02 5.439817294E-01
 -1.145499765E-01 -1.000000000E-03 -3.332347555E-02 5.440611831E-01
 -3.811511401E-02 -1.000000000E-03 -5.263114849E-02 4.709153555E-01
 -3.790592738E-02 -1.000000000E-03 -5.267820171E-02 4.708918796E-01
 -3.799680139E-02 -1.000000000E-03 -5.265804556E-02 4.708851211E-01
 -3.777807027E-02 -1.000000000E-03 -5.270579414E-02 4.707044108E-01
 -2.967097231E-02 -1.000000000E-03 -5.447027472E-02 4.624685445E-01
 -1.572183389E-02 -1.000000000E-03 -5.740020700E-02 4.531655414E-01
 -4.960675247E-03 -1.000000000E-03 -5.957948663E-02 4.337552213E-01
 -4.655902909E-03 -1.000000000E-03 -5.964033588E-02 4.334233612E-01
 -1.548099059E-02 -1.000000000E-03 -5.745015909E-02 4.530190078E-01
 1.948987336E-02 -1.000000000E-03 -6.428026706E-02 4.311874195E-01
 9.820140774E-03 -1.000000000E-03 -6.246163928E-02 4.322497796E-01
 1.985691610E-02 -1.000000000E-03 -6.434797568E-02 4.309483432E-01
 1.964819925E-02 -1.000000000E-03 -6.431006225E-02 4.310602915E-01
 9.601109586E-03 -1.000000000E-03 -6.241926253E-02 4.322423197E-01
 3.181708467E-02 -1.000000000E-03 -6.653240255E-02 4.219098812E-01
 4.279239667E-02 -1.000000000E-03 -6.847195843E-02 4.088294243E-01
 5.085325041E-02 -1.000000000E-03 -6.986185891E-02 4.096077149E-01
 4.297114391E-02 -1.000000000E-03 -6.850313935E-02 4.087341271E-01
 6.005799574E-02 -1.000000000E-03 -7.141386967E-02 4.071740350E-01
 5.098720050E-02 -1.000000000E-03 -6.988441226E-02 4.095605107E-01
 6.671132770E-01 -1.000000000E-03 -1.276265138E-01 3.879327261E-01
 6.897619772E-01 -1.000000000E-03 -1.285483031E-01 3.955753904E-01
 6.900104966E-01 -1.000000000E-03 -1.285581205E-01 3.956978810E-01
 7.038270351E-01 -1.000000000E-03 -1.290757464E-01 4.015005511E-01
 6.901791751E-01 -1.000000000E-03 -1.285644405E-01 3.957749141E-01
 7.039501847E-01 -1.000000000E-03 -1.290801233E-01 4.015751543E-01
 6.451753578E-01 -1.000000000E-03 -1.266581625E-01 3.809456032E-01
 6.453626597E-01 -1.000000000E-03 -1.266668621E-01 3.809996392E-01
 6.456457124E-01 -1.000000000E-03 -1.266794023E-01 3.811047696E-01
 6.210620987E-01 -1.000000000E-03 -1.255050061E-01 3.770954708E-01
 7.042291840E-01 -1.000000000E-03 -1.290898818E-01 4.017204852E-01
 7.202705284E-01 -1.000000000E-03 -1.296502047E-01 4.134765909E-01
 7.199513537E-01 -1.000000000E-03 -1.296396846E-01 4.133970912E-01
 6.668676390E-01 -1.000000000E-03 -1.276162403E-01 3.878813293E-01
 6.208834806E-01 -1.000000000E-03 -1.254962406E-01 3.770521377E-01
 5.871346055E-01 -1.000000000E-03 -1.237362503E-01 3.674025043E-01
 6.037334593E-01 -1.000000000E-03 -1.246228425E-01 3.727867433E-01
 6.039440269E-01 -1.000000000E-03 -1.246337457E-01 3.728393560E-01
 5.868838484E-01 -1.000000000E-03 -1.237224697E-01 3.673808183E-01
 5.588858776E-01 -1.000000000E-03 -1.221360076E-01 3.644142294E-01
 5.379808888E-01 -1.000000000E-03 -1.208782269E-01 3.606175187E-01
 5.383194811E-01 -1.000000000E-03 -1.208989646E-01 3.606039557E-01
 5.586010825E-01 -1.000000000E-03 -1.221194032E-01 3.642993183E-01
 5.141108151E-01 -1.000000000E-03 -1.193676144E-01 3.581476029E-01
 5.136857528E-01 -1.000000000E-03 -1.193404093E-01 3.580596772E-01
 3 1
 1 2
 2 321
 321 322
 322 320
 320 315
 315 313
 313 314
 314 312
 312 311
 311 310
 310 323
 323 318
 318 317
 317 316
 316 319
 319 324
 324 327
 327 326
 326 325
 325 328
 328 329
 329 332
 332 331
 331 330
 330 333
 333 334
 334 32
 32 29
 29 30
 30 31
 31 36
 36 35
 35 34
 34 33
 33 37
 37 38
 38 39
 39 40
 40 43
 43 41
 41 42
 42 44
 44 45
 45 46
 46 47
 47 48
 48 49
 49 50
 50 51
 51 52
 52 53
 53 54
 54 57
 57 55
 55 56
 56 58
 58 59
 59 61
 61 60
 60 67
 67 68
 68 74
 74 73
 73 69
 69 70
 70 62
 62 63
 63 72
 72 71
 71 64
 64 66
 66 65
 65 77
 77 78
 78 76
 76 75
 75 79
 79 80
 80 82
 82 81
 81 83
 83 308
 308 309
 309 306
 306 307
 307 305
 305 304
 304 301
 301 302
 302 299
 299 300
 300 303
 303 297
 297 296
 296 298
 298 295
 295 294
 294 293
 293 291
 291 292
 292 290
 290 284
 284 283
 283 281
 281 282
 282 278
 278 280
 280 279
 279 276
 276 277
 277 285
 285 287
 287 286
 286 288
 288 289
 289 253
 253 252
 252 244
 244 243
 243 258
 258 250
 250 249
 249 251
 251 257
 257 245
 245 248
 248 247
 247 246
 246 255
 255 256
 256 254
 254 264
 264 262
 262 263
 263 265
 265 266
 266 267
 267 270
 270 268
 268 269
 269 275
 275 242
 242 241
 241 274
 274 273
 273 272
 272 271
 271 261
 261 260
 260 259
 259 189
 189 188
 188 185
 185 187
 187 186
 186 184
 184 183
 183 182
 182 181
 181 180
 180 179
 179 177
 177 178
 178 238
 238 237
 237 236
 236 234
 234 235
 235 240
 240 230
 230 231
 231 233
 233 232
 232 239
 239 171
 171 166
 166 165
 165 167
 167 168
 168 169
 169 164
 164 163
 163 161
 161 162
 162 170
 170 158
 158 160
 160 159
 159 146
 146 147
 147 156
 156 155
 155 157
 157 149
 149 148
 148 154
 154 151
 151 150
 150 153
 153 152
 152 108
 108 106
 106 107
 107 104
 104 105
 105 103
 103 102
 102 101
 101 100
 100 99
 99 98
 98 97
 97 95
 95 96
 96 94
 94 92
 92 93
 93 91
 91 90
 90 89
 89 88
 88 87
 87 85
 85 84
 84 86
 86 114
 114 116
 116 115
 115 117
 117 111
 111 110
 110 109
 109 112
 112 113
 113 133
 133 132
 132 129
 129 128
 128 123
 123 124
 124 125
 125 127
 127 126
 126 122
 122 121
 121 130
 130 131
 131 134
 134 136
 136 135
 135 137
 137 138
 138 139
 139 142
 142 143
 143 141
 141 140
 140 144
 144 145
 145 229
 229 227
 227 226
 226 228
 228 225
 225 224
 224 219
 219 218
 218 220
 220 223
 223 222
 222 221
 221 217
 217 216
 216 214
 214 215
 215 213
 213 212
 212 211
 211 208
 208 209
 209 210
 210 207
 207 205
 205 206
 206 204
 204 203
 203 202
 202 200
 200 201
 201 199
 199 198
 198 197
 197 196
 196 195
 195 194
 194 193
 193 192
 192 191
 191 190
 190 173
 173 172
 172 175
 175 176
 176 174
 174 120
 120 119
 119 118
 118 28
 28 27
 27 26
 26 23
 23 25
 25 24
 24 22
 22 21
 21 20
 20 17
 17 19
 19 18
 18 16
 16 15
 15 14
 14 13
 13 12
 12 11
 11 10
 10 8
 8 9
 9 7
 7 6
 6 5
 5 4
 4 3
ZONE T="COFFE, MIT adapt Y=-0.035"
 STRANDID=7, SOLUTIONTIME=315
 Nodes=375, Elements=375, ZONETYPE=FELineSeg
 DATAPACKING=POINT
 AUXDATA CGNS.CGNSBase_t="Base"
 AUXDATA CGNS.Zone_t="Zone"
 DT=(DOUBLE DOUBLE DOUBLE DOUBLE )
 7.338210043E-01 -3.500000000E-02 -1.300895249E-01 4.197936894E-01
 7.341203205E-01 -3.500000000E-02 -1.300987362E-01 4.202447646E-01
 7.335749526E-01 -3.500000000E-02 -1.300818499E-01 4.194141551E-01
 7.357401348E-01 -3.500000000E-02 -1.301476425E-01 4.196299449E-01
 7.366279895E-01 -3.500000000E-02 -1.301753222E-01 4.196971303E-01
 7.373196237E-01 -3.500000000E-02 -1.301966869E-01 4.222620591E-01
 7.378663455E-01 -3.500000000E-02 -1.302136489E-01 4.211454922E-01
 7.376563596E-01 -3.500000000E-02 -1.302071421E-01 4.188759314E-01
 7.382033074E-01 -3.500000000E-02 -1.302237686E-01 4.167057926E-01
 7.382918219E-01 -3.500000000E-02 -1.302264406E-01 4.166492166E-01
 7.384631854E-01 -3.500000000E-02 -1.302317465E-01 4.159462538E-01
 7.384967160E-01 -3.500000000E-02 -1.302327692E-01 4.168507523E-01
 7.385660678E-01 -3.500000000E-02 -1.302349161E-01 4.165953344E-01
 7.385789391E-01 -3.500000000E-02 -1.302353036E-01 4.149910121E-01
 7.385966044E-01 -3.500000000E-02 -1.302358504E-01 4.176017684E-01
 7.386058150E-01 -3.500000000E-02 -1.302361330E-01 4.182956797E-01
 7.385995258E-01 -3.500000000E-02 -1.302359390E-01 4.178533035E-01
 7.386048250E-01 -3.500000000E-02 -1.302361030E-01 4.212686227E-01
 7.386052527E-01 -3.500000000E-02 -1.302359474E-01 4.208611122E-01
 7.386027713E-01 -3.500000000E-02 -1.302351304E-01 4.202769396E-01
 7.385995920E-01 -3.500000000E-02 -1.302340836E-01 4.197660730E-01
 7.385832152E-01 -3.500000000E-02 -1.302286904E-01 4.198584979E-01
 7.385982813E-01 -3.500000000E-02 -1.302336511E-01 4.195074264E-01
 7.385853928E-01 -3.500000000E-02 -1.302294075E-01 4.211521070E-01
 7.385669063E-01 -3.500000000E-02 -1.302233039E-01 4.209350977E-01
 7.383581118E-01 -3.500000000E-02 -1.301545596E-01 4.199863924E-01
 7.381340497E-01 -3.500000000E-02 -1.300805634E-01 4.183159646E-01
 4.903298441E-01 -3.500000000E-02 -1.177815278E-01 3.560306999E-01
 4.796965880E-01 -3.500000000E-02 -1.170457191E-01 3.537692885E-01
 4.706858824E-01 -3.500000000E-02 -1.164119344E-01 3.526497863E-01
 5.005453980E-01 -3.500000000E-02 -1.184648026E-01 3.560637606E-01
 4.365790507E-01 -3.500000000E-02 -1.139030680E-01 3.522526806E-01
 4.490975699E-01 -3.500000000E-02 -1.148443560E-01 3.529833519E-01
 4.544544815E-01 -3.500000000E-02 -1.152396483E-01 3.532163361E-01
 4.628824995E-01 -3.500000000E-02 -1.158534906E-01 3.533031503E-01
 4.298847117E-01 -3.500000000E-02 -1.133896061E-01 3.518527839E-01
 4.196643780E-01 -3.500000000E-02 -1.125977926E-01 3.521036130E-01
 4.113297537E-01 -3.500000000E-02 -1.119336596E-01 3.523140308E-01
 4.002005489E-01 -3.500000000E-02 -1.110395541E-01 3.526843302E-01
 3.752093933E-01 -3.500000000E-02 -1.089531009E-01 3.497127373E-01
 3.675696558E-01 -3.500000000E-02 -1.082983021E-01 3.479811486E-01
 3.909721396E-01 -3.500000000E-02 -1.102779084E-01 3.523444829E-01
 3.546108458E-01 -3.500000000E-02 -1.071610332E-01 3.502155157E-01
 3.473195156E-01 -3.500000000E-02 -1.065083525E-01 3.513880073E-01
 3.374875038E-01 -3.500000000E-02 -1.056192742E-01 3.504139381E-01
 3.238616866E-01 -3.500000000E-02 -1.043451624E-01 3.487934941E-01
 3.167894697E-01 -3.500000000E-02 -1.036851330E-01 3.487890729E-01
 3.072871423E-01 -3.500000000E-02 -1.027666498E-01 3.510143411E-01
 3.029597984E-01 -3.500000000E-02 -1.023492381E-01 3.511032263E-01
 2.985061422E-01 -3.500000000E-02 -1.019097228E-01 3.516441740E-01
 2.860013408E-01 -3.500000000E-02 -1.006630280E-01 3.510609481E-01
 2.808035020E-01 -3.500000000E-02 -1.001329687E-01 3.502523800E-01
 2.725726015E-01 -3.500000000E-02 -9.928898481E-02 3.518949534E-01
 2.566598677E-01 -3.500000000E-02 -9.760915512E-02 3.581156608E-01
 2.427463275E-01 -3.500000000E-02 -9.610017562E-02 3.584104227E-01
 2.655558538E-01 -3.500000000E-02 -9.855414018E-02 3.557034325E-01
 2.363580409E-01 -3.500000000E-02 -9.539477065E-02 3.579603036E-01
 2.305001121E-01 -3.500000000E-02 -9.473514385E-02 3.591228668E-01