TITLE     = "Translation of CGNS file naca0012Flow00000405.cgns"
VARIABLES = "x"
"y"
"z"
"Cp"
DATASETAUXDATA Common.DensityVar="4"
DATASETAUXDATA Common.PressureVar="10"
DATASETAUXDATA Common.TemperatureVar="9"
DATASETAUXDATA Common.UVar="5"
DATASETAUXDATA Common.VectorVarsAreVelocity="TRUE"
DATASETAUXDATA Common.VVar="6"
DATASETAUXDATA Common.WVar="7"
ZONE T="COFFE, HM Y=-0.001"
 STRANDID=34, SOLUTIONTIME=405
 Nodes=315, Elements=313, ZONETYPE=FELineSeg
 DATAPACKING=BLOCK
 AUXDATA CGNS.CGNSBase_t="Base"
 AUXDATA CGNS.Zone_t="Zone"
 DT=(DOUBLE DOUBLE DOUBLE DOUBLE )
 -2.365033899E-01 -2.362406248E-01 -2.375772441E-01 -2.377762787E-01 -2.387205848E-01
 -2.389360158E-01 -2.397794460E-01 -2.399452862E-01 -2.406787293E-01 -2.408379913E-01
 -2.414822847E-01 2.836515073E-01 2.971276660E-01 2.596926327E-01 2.502700559E-01
 2.245786338E-01 2.162306559E-01 1.879996667E-01 1.788384477E-01 1.488690013E-01
 1.415954350E-01 8.213511351E-02 1.119812235E-01 1.103665316E-01 9.814167999E-02
 7.744120684E-02 3.986649822E-02 5.395684721E-02 1.245762046E-02 1.831626316E-03
 -2.260585467E-02 -3.173372981E-02 -5.671461441E-02 -6.452303785E-02 -8.833817449E-02
 -9.499206828E-02 -1.158503471E-01 -1.208837821E-01 -1.378025098E-01 -1.413059953E-01
 -1.554187139E-01 -1.588317411E-01 -1.707651504E-01 -1.731785465E-01 -1.829423200E-01
 -1.842482497E-01 -1.922789006E-01 -1.940055663E-01 -2.008016794E-01 -2.020091183E-01
 -2.076145126E-01 -2.085311504E-01 -2.130947741E-01 -2.141149926E-01 -2.179940048E-01
 -2.187562329E-01 -2.219882512E-01 -2.226790125E-01 -2.254376393E-01 -2.259771409E-01
 -2.283439719E-01 -2.288781146E-01 -2.308892482E-01 -2.312667692E-01 -2.329258312E-01
 -2.332614776E-01 -2.346981703E-01 -2.349908250E-01 6.983395544E-01 7.041587714E-01
 6.844682828E-01 6.748397477E-01 6.240301314E-01 6.055370420E-01 6.575985700E-01
 6.434620664E-01 5.842779226E-01 5.670331984E-01 5.411951618E-01 5.307811946E-01
 5.026025415E-01 4.965097293E-01 4.282319026E-01 4.391467203E-01 4.704664988E-01
 4.637800906E-01 4.041344917E-01 3.888485390E-01 3.667028198E-01 3.536290214E-01
 -2.462097525E-01 -2.464214341E-01 -2.464217593E-01 -2.462090535E-01 -2.464219042E-01
 -2.464137911E-01 -2.464230237E-01 -2.462222940E-01 -2.463373843E-01 -2.463471168E-01
 -2.462081755E-01 -2.461894010E-01 -2.457709437E-01 -2.457697616E-01 -2.457684118E-01
 -2.457932734E-01 -2.457401639E-01 -2.460203561E-01 -2.460002229E-01 -2.464371783E-01
 -2.464354382E-01 -2.451337090E-01 -2.454813076E-01 -2.451352996E-01 -2.454521465E-01
 -2.451659198E-01 -2.451319609E-01 -2.450957218E-01 -2.443312116E-01 -2.443293003E-01
 -2.447597938E-01 -2.447228917E-01 -2.443684147E-01 -2.443272473E-01 -2.442853790E-01
 -2.438830489E-01 -2.438389462E-01 -2.434078150E-01 -2.433816015E-01 -2.433802773E-01
 -2.433789685E-01 -2.433633334E-01 -2.422970954E-01 -2.421728678E-01 -2.427827693E-01
 -2.428732844E-01 -2.416117448E-01 7.147771092E-01 7.182311269E-01 7.233519365E-01
 7.301001588E-01 7.250928368E-01 7.282310615E-01 7.303515320E-01 7.343030019E-01
 7.367230742E-01 7.343786496E-01 7.348182526E-01 7.386058150E-01 7.368686251E-01
 7.386058150E-01 7.386058150E-01 -2.462019380E-01 -2.462019380E-01 -2.463196188E-01
 -2.463828599E-01 -2.463997504E-01 3.194917367E-01 3.325473443E-01 -1.968487914E-01
 -2.023112983E-01 -2.028067588E-01 -2.001511303E-01 -2.197293990E-01 -2.202807623E-01
 -2.168547938E-01 -2.162228376E-01 -2.074108551E-01 -2.087921261E-01 -2.122212796E-01
 -2.131232651E-01 -2.228412889E-01 -2.231826071E-01 -2.252794998E-01 -2.256764156E-01
 -2.297110695E-01 -2.293840970E-01 -2.278057299E-01 -2.274456550E-01 -2.311121883E-01
 -2.313533884E-01 -2.326300860E-01 -2.328689798E-01 -6.894020488E-02 -7.525868054E-02
 -1.026700890E-01 -9.693670547E-02 -1.237708265E-01 -1.204655326E-01 -1.386981557E-01
 -1.424716876E-01 -4.434097034E-02 -1.555918376E-01 -1.576245963E-01 -1.687701650E-01
 -1.742546499E-01 -1.697481723E-01 -1.799786066E-01 -1.816968520E-01 -1.894283374E-01
 -1.960638485E-01 4.037239072E-01 4.169732900E-01 3.686911935E-01 3.812596294E-01
 3.483887102E-01 4.417050177E-01 4.512548923E-01 4.756927528E-01 4.819730681E-01
 5.065529931E-01 5.139370622E-01 5.391705892E-01 5.504482803E-01 5.746515575E-01
 5.891108438E-01 6.110549537E-01 7.386058150E-01 7.386058150E-01 7.376793178E-01
 7.364738875E-01 7.363633880E-01 7.348049611E-01 7.343681359E-01 7.343328212E-01
 7.306025687E-01 7.305833314E-01 7.259064228E-01 7.304752464E-01 7.233825306E-01
 7.196037385E-01 7.162191003E-01 7.058054538E-01 7.005257341E-01 6.859456966E-01
 6.788475904E-01 6.598226101E-01 6.485494252E-01 6.276040391E-01 -2.438236078E-01
 -2.447947839E-01 -2.448010226E-01 -2.448070154E-01 -2.455685307E-01 -2.446836989E-01
 -2.449102881E-01 -2.443224292E-01 -2.443657048E-01 -2.439520575E-01 -2.452060538E-01
 -2.455750113E-01 -2.454816495E-01 -2.456069724E-01 -2.452398489E-01 -2.458390955E-01
 -2.458924497E-01 -2.460435028E-01 -2.462019380E-01 -2.462019380E-01 2.431195687E-01
 2.350789082E-01 2.684038633E-01 2.775400145E-01 3.357133462E-01 3.137181896E-01
 3.012780871E-01 -2.340526858E-01 -2.342178273E-01 -2.352463619E-01 -2.354527566E-01
 -2.363490157E-01 -2.365291640E-01 -2.373454343E-01 -2.375156387E-01 -2.382517106E-01
 -2.383814240E-01 -2.390543181E-01 -2.391906796E-01 -2.398316360E-01 -2.399448179E-01
 -2.405845674E-01 -2.406632363E-01 -2.411813664E-01 -2.419933178E-01 -2.420513383E-01
 -2.415079891E-01 -2.424899116E-01 -2.413220155E-01 -2.432407687E-01 -2.413314996E-01
 -2.413410458E-01 -2.432920877E-01 -2.428076175E-01 -2.436757571E-01 -2.426409779E-01
 -2.426495755E-01 -2.426581474E-01 -2.438086810E-01 -2.438162081E-01 2.070247801E-01
 6.152387341E-02 3.447590554E-02 1.682304225E-01 1.985476431E-01 7.542689356E-02
 9.860642678E-02 1.228242803E-01 1.036363846E-01 1.313114377E-01 1.626692728E-01
 2.314237343E-02 -1.682834925E-03 1.323049860E-01 -3.551644193E-02 -1.024378910E-02
 -1.000000000E-03 -1.000000000E-03 -1.000000000E-03 -1.000000000E-03 -1.000000000E-03
 -1.000000000E-03 -1.000000000E-03 -1.000000000E-03 -1.000000000E-03 -1.000000000E-03
 -1.000000000E-03 -1.000000000E-03 -1.000000000E-03 -1.000000000E-03 -1.000000000E-03
 -1.000000000E-03 -1.000000000E-03 -1.000000000E-03 -1.000000000E-03 -1.000000000E-03
 -1.000000000E-03 -1.000000000E-03 -1.000000000E-03 -1.000000000E-03 -1.000000000E-03
 -1.000000000E-03 -1.000000000E-03 -1.000000000E-03 -1.000000000E-03 -1.000000000E-03
 -1.000000000E-03 -1.000000000E-03 -1.000000000E-03 -1.000000000E-03 -1.000000000E-03
 -1.000000000E-03 -1.000000000E-03 -1.000000000E-03 -1.000000000E-03 -1.000000000E-03
 -1.000000000E-03 -1.000000000E-03 -1.000000000E-03 -1.000000000E-03 -1.000000000E-03
 -1.000000000E-03 -1.000000000E-03 -1.000000000E-03 -1.000000000E-03 -1.000000000E-03
 -1.000000000E-03 -1.000000000E-03 -1.000000000E-03 -1.000000000E-03 -1.000000000E-03
 -1.000000000E-03 -1.000000000E-03 -1.000000000E-03 -1.000000000E-03 -1.000000000E-03
 -1.000000000E-03 -1.000000000E-03 -1.000000000E-03 -1.000000000E-03 -1.000000000E-03
 -1.000000000E-03 -1.000000000E-03 -1.000000000E-03 -1.000000000E-03 -1.000000000E-03
 -1.000000000E-03 -1.000000000E-03 -1.000000000E-03 -1.000000000E-03 -1.000000000E-03
 -1.000000000E-03 -1.000000000E-03 -1.000000000E-03 -1.000000000E-03 -1.000000000E-03
 -1.000000000E-03 -1.000000000E-03 -1.000000000E-03 -1.000000000E-03 -1.000000000E-03
 -1.000000000E-03 -1.000000000E-03 -1.000000000E-03 -1.000000000E-03 -1.000000000E-03
 -1.000000000E-03 -1.000000000E-03 -1.000000000E-03 -1.000000000E-03 -1.000000000E-03
 -1.000000000E-03 -1.000000000E-03 -1.000000000E-03 -1.000000000E-03 -1.000000000E-03
 -1.000000000E-03 -1.000000000E-03 -1.000000000E-03 -1.000000000E-03 -1.000000000E-03
 -1.000000000E-03 -1.000000000E-03 -1.000000000E-03 -1.000000000E-03 -1.000000000E-03
 -1.000000000E-03 -1.000000000E-03 -1.000000000E-03 -1.000000000E-03 -1.000000000E-03
 -1.000000000E-03 -1.000000000E-03 -1.000000000E-03 -1.000000000E-03 -1.000000000E-03
 -1.000000000E-03 -1.000000000E-03 -1.000000000E-03 -1.000000000E-03 -1.000000000E-03
 -1.000000000E-03 -1.000000000E-03 -1.000000000E-03 -1.000000000E-03 -1.000000000E-03
 -1.000000000E-03 -1.000000000E-03 -1.000000000E-03 -1.000000000E-03 -1.000000000E-03
 -1.000000000E-03 -1.000000000E-03 -1.000000000E-03 -1.000000000E-03 -1.000000000E-03
 -1.000000000E-03 -1.000000000E-03 -1.000000000E-03 -1.000000000E-03 -1.000000000E-03
 -1.000000000E-03 -1.000000000E-03 -1.000000000E-03 -1.000000000E-03 -1.000000000E-03
 -1.000000000E-03 -1.000000000E-03 -1.000000000E-03 -1.000000000E-03 -1.000000000E-03
 -1.000000000E-03 -1.000000000E-03 -1.000000000E-03 -1.000000000E-03 -1.000000000E-03
 -1.000000000E-03 -1.000000000E-03 -1.000000000E-03 -1.000000000E-03 -1.000000000E-03
 -1.000000000E-03 -1.000000000E-03 -1.000000000E-03 -1.000000000E-03 -1.000000000E-03
 -1.000000000E-03 -1.000000000E-03 -1.000000000E-03 -1.000000000E-03 -1.000000000E-03
 -1.000000000E-03 -1.000000000E-03 -1.000000000E-03 -1.000000000E-03 -1.000000000E-03
 -1.000000000E-03 -1.000000000E-03 -1.000000000E-03 -1.000000000E-03 -1.000000000E-03
 -1.000000000E-03 -1.000000000E-03 -1.000000000E-03 -1.000000000E-03 -1.000000000E-03
 -1.000000000E-03 -1.000000000E-03 -1.000000000E-03 -1.000000000E-03 -1.000000000E-03
 -1.000000000E-03 -1.000000000E-03 -1.000000000E-03 -1.000000000E-03 -1.000000000E-03
 -1.000000000E-03 -1.000000000E-03 -1.000000000E-03 -1.000000000E-03 -1.000000000E-03
 -1.000000000E-03 -1.000000000E-03 -1.000000000E-03 -1.000000000E-03 -1.000000000E-03
 -1.000000000E-03 -1.000000000E-03 -1.000000000E-03 -1.000000000E-03 -1.000000000E-03
 -1.000000000E-03 -1.000000000E-03 -1.000000000E-03 -1.000000000E-03 -1.000000000E-03
 -1.000000000E-03 -1.000000000E-03 -1.000000000E-03 -1.000000000E-03 -1.000000000E-03
 -1.000000000E-03 -1.000000000E-03 -1.000000000E-03 -1.000000000E-03 -1.000000000E-03
 -1.000000000E-03 -1.000000000E-03 -1.000000000E-03 -1.000000000E-03 -1.000000000E-03
 -1.000000000E-03 -1.000000000E-03 -1.000000000E-03 -1.000000000E-03 -1.000000000E-03
 -1.000000000E-03 -1.000000000E-03 -1.000000000E-03 -1.000000000E-03 -1.000000000E-03
 -1.000000000E-03 -1.000000000E-03 -1.000000000E-03 -1.000000000E-03 -1.000000000E-03
 -1.000000000E-03 -1.000000000E-03 -1.000000000E-03 -1.000000000E-03 -1.000000000E-03
 -1.000000000E-03 -1.000000000E-03 -1.000000000E-03 -1.000000000E-03 -1.000000000E-03
 -1.000000000E-03 -1.000000000E-03 -1.000000000E-03 -1.000000000E-03 -1.000000000E-03
 -1.000000000E-03 -1.000000000E-03 -1.000000000E-03 -1.000000000E-03 -1.000000000E-03
 -1.000000000E-03 -1.000000000E-03 -1.000000000E-03 -1.000000000E-03 -1.000000000E-03
 -1.000000000E-03 -1.000000000E-03 -1.000000000E-03 -1.000000000E-03 -1.000000000E-03
 -1.000000000E-03 -1.000000000E-03 -1.000000000E-03 -1.000000000E-03 -1.000000000E-03
 -1.000000000E-03 -1.000000000E-03 -1.000000000E-03 -1.000000000E-03 -1.000000000E-03
 -1.000000000E-03 -1.000000000E-03 -1.000000000E-03 -1.000000000E-03 -1.000000000E-03
 -1.000000000E-03 -1.000000000E-03 -1.000000000E-03 -1.000000000E-03 -1.000000000E-03
 -1.000000000E-03 -1.000000000E-03 -1.000000000E-03 -1.000000000E-03 -1.000000000E-03
 -1.000000000E-03 -1.000000000E-03 -1.000000000E-03 -1.000000000E-03 -1.000000000E-03
 -1.000000000E-03 -1.000000000E-03 -1.000000000E-03 -1.000000000E-03 -1.000000000E-03
 2.191066979E-02 2.165154048E-02 2.299773648E-02 2.320646858E-02 2.422580320E-02
 2.446698943E-02 2.544105599E-02 2.564005420E-02 2.654686412E-02 2.675147820E-02
 2.760516298E-02 -1.004219565E-01 -1.017684273E-01 -9.793076561E-02 -9.692084211E-02
 -9.405972546E-02 -9.310003896E-02 -8.971789763E-02 -8.857740677E-02 -8.468283759E-02
 -8.369574777E-02 -7.498797244E-02 -7.951618430E-02 -7.927999111E-02 -7.741946874E-02
 -7.421843432E-02 -6.793157435E-02 -7.037782437E-02 -6.294633647E-02 -6.090152114E-02
 -5.595305313E-02 -5.400784364E-02 -4.838670041E-02 -4.652545828E-02 -4.055430820E-02
 -3.877146560E-02 -3.293597286E-02 -3.142868023E-02 -2.618464585E-02 -2.503109680E-02
 -2.021440725E-02 -1.898388213E-02 -1.452275341E-02 -1.356827298E-02 -9.586634119E-03
 -9.027793383E-03 -5.483747238E-03 -4.684588241E-03 -1.441974593E-03 -8.367197632E-04
 2.049459341E-03 2.542865906E-03 5.067665217E-03 5.656260330E-03 7.962440888E-03
 8.435074915E-03 1.049424627E-02 1.095281328E-02 1.283647561E-02 1.321956648E-02
 1.494978941E-02 1.535614690E-02 1.692876098E-02 1.723603655E-02 1.862165807E-02
 1.891261831E-02 2.019356788E-02 2.046400499E-02 -1.288676222E-01 -1.290799241E-01
 -1.283270128E-01 -1.279446165E-01 -1.256413921E-01 -1.247147292E-01 -1.272013999E-01
 -1.265743598E-01 -1.235761774E-01 -1.226077285E-01 -1.210738215E-01 -1.204293447E-01
 -1.186091766E-01 -1.182001531E-01 -1.132599532E-01 -1.140949071E-01 -1.163958667E-01
 -1.159166299E-01 -1.113554786E-01 -1.100976677E-01 -1.082211318E-01 -1.070714797E-01
 3.793721500E-02 3.991785915E-02 3.992269423E-02 3.793263253E-02 3.992741686E-02
 3.981959745E-02 4.000420484E-02 3.802844441E-02 3.885657471E-02 3.894746663E-02
 3.792795861E-02 3.783303666E-02 3.598402044E-02 3.597960386E-02 3.597511124E-02
 3.607206021E-02 3.588390518E-02 3.697287455E-02 3.688353776E-02 4.086190794E-02
 4.097399688E-02 3.408115482E-02 3.504493190E-02 3.408539558E-02 3.495799895E-02
 3.416999988E-02 3.407684867E-02 3.398946447E-02 3.225149076E-02 3.224748130E-02
 3.317725786E-02 3.309321630E-02 3.233163411E-02 3.224342432E-02 3.216202594E-02
 3.137820876E-02 3.129615016E-02 3.052954531E-02 3.048283942E-02 3.048052816E-02
 3.047835306E-02 3.045270608E-02 2.876304241E-02 2.857958297E-02 2.950290391E-02
 2.964653121E-02 2.778330890E-02 -1.294591878E-01 -1.295781039E-01 -1.297532315E-01
 -1.299721293E-01 -1.298114126E-01 -1.299124260E-01 -1.299802534E-01 -1.301043523E-01
 -1.301789437E-01 -1.301067585E-01 -1.301203499E-01 -1.302361330E-01 -1.301833898E-01
 -1.302361330E-01 -1.302361330E-01 4.341204442E-02 4.341204442E-02 4.262143568E-02
 4.199763320E-02 4.178169387E-02 -1.039401847E-01 -1.051593493E-01 6.893208711E-02
 6.806444127E-02 6.797755787E-02 6.840573539E-02 6.403734098E-02 6.386618789E-02
 6.487119741E-02 6.504476312E-02 6.710760167E-02 6.681975589E-02 6.605501443E-02
 6.583760386E-02 6.303142867E-02 6.291305859E-02 6.215498332E-02 6.200333196E-02
 6.031060937E-02 6.046017217E-02 6.114773930E-02 6.129856309E-02 5.964655395E-02
 5.952711121E-02 5.887171618E-02 5.874358720E-02 6.830393355E-02 6.885959527E-02
 7.086559872E-02 7.052985141E-02 7.183842897E-02 7.173447570E-02 7.214792210E-02
 7.216128512E-02 6.574302178E-02 7.205058384E-02 7.199564512E-02 7.157175836E-02
 7.120722952E-02 7.151813994E-02 7.082190358E-02 7.065831260E-02 6.989370740E-02
 6.904114934E-02 -2.971804020E-02 -3.334166412E-02 -2.027177626E-02 -2.363351112E-02
 -1.490208801E-02 -4.019069621E-02 -4.286165954E-02 -4.976333226E-02 -5.155237847E-02
 -5.861791883E-02 -6.075751285E-02 -6.813872129E-02 -7.147048954E-02 -7.868614253E-02
 -8.304771954E-02 -8.972158865E-02 -1.302361330E-01 -1.302361330E-01 -1.299307887E-01
 -1.295327949E-01 -1.294963529E-01 -1.289829273E-01 -1.288390518E-01 -1.288274558E-01
 -1.276008061E-01 -1.275945002E-01 -1.260606610E-01 -1.275590144E-01 -1.252362644E-01
 -1.240062507E-01 -1.229046744E-01 -1.195290986E-01 -1.178227158E-01 -1.131482833E-01
 -1.108794802E-01 -1.048690271E-01 -1.013232027E-01 -9.482267773E-02 4.940820943E-02
 4.768989465E-02 4.767765413E-02 4.766477091E-02 4.583989298E-02 4.790015541E-02
 4.743644852E-02 4.858103533E-02 4.850452959E-02 4.919470295E-02 4.678524461E-02
 4.582108077E-02 4.606759044E-02 4.571833030E-02 4.670428922E-02 4.498059284E-02
 4.478855050E-02 4.418920849E-02 4.341204442E-02 4.341204442E-02 1.159741100E-02
 1.351922343E-02 5.459191940E-03 3.201193052E-03 -1.158500898E-02 -5.916184453E-03
 -2.746546535E-03 5.808492011E-02 5.798897988E-02 5.737068965E-02 5.724146514E-02
 5.666046065E-02 5.653910795E-02 5.597063383E-02 5.584737612E-02 5.529754498E-02
 5.519695076E-02 5.465851738E-02 5.454537364E-02 5.399455442E-02 5.389366062E-02
 5.330107556E-02 5.322533060E-02 5.270499528E-02 5.183151730E-02 5.176521112E-02
 5.236146472E-02 5.123862542E-02 5.256416322E-02 5.026547553E-02 5.255445511E-02
 5.254416788E-02 5.019396130E-02 5.083796850E-02 4.962731996E-02 5.105774297E-02
 5.104719796E-02 5.103604031E-02 4.943164544E-02 4.942024502E-02 2.008213512E-02
 5.005532774E-02 5.468519237E-02 2.879776303E-02 2.202425984E-02 4.755802298E-02
 4.316584421E-02 3.835691451E-02 4.221611467E-02 3.665178232E-02 3.000742668E-02
 5.650874019E-02 6.025005619E-02 3.644624231E-02 6.471674293E-02 6.145483661E-02
 1.013473029E+00 1.012199846E+00 1.012588679E+00 1.011757891E+00 1.005493548E+00
 1.001865755E+00 9.811611661E-01 9.787723710E-01 9.664282847E-01 9.614497722E-01
 9.354304795E-01 3.606498307E-01 3.593625579E-01 3.625217819E-01 3.637673774E-01
 3.679115269E-01 3.689719869E-01 3.740028289E-01 3.758026977E-01 3.826118088E-01
 3.846057027E-01 4.021362264E-01 3.919646662E-01 3.923981276E-01 3.966903764E-01
 4.044440666E-01 4.213543901E-01 4.153678093E-01 4.325331546E-01 4.387817849E-01
 4.575193910E-01 4.646831634E-01 4.836462706E-01 4.897136520E-01 5.135447057E-01
 5.238518352E-01 5.547978137E-01 5.623181183E-01 5.906826660E-01 5.977011918E-01
 6.296063507E-01 6.380869952E-01 6.699651896E-01 6.776794761E-01 7.099176995E-01
 7.142862888E-01 7.436930654E-01 7.517570829E-01 7.851102437E-01 7.917793575E-01
 8.215864339E-01 8.265879065E-01 8.529640496E-01 8.600081457E-01 8.854185929E-01
 8.903821478E-01 9.169796703E-01 9.223195717E-01 9.387995821E-01 9.432079229E-01
 9.652841657E-01 9.698217111E-01 9.826597317E-01 9.847000030E-01 1.001630730E+00
 1.003812454E+00 1.009269927E+00 1.010205908E+00 4.196684980E-01 4.235507513E-01
 4.125629711E-01 4.082062677E-01 3.891846525E-01 3.839608113E-01 4.017931783E-01
 3.964850074E-01 3.801274336E-01 3.767556299E-01 3.711080644E-01 3.690113032E-01
 3.651460631E-01 3.646682823E-01 3.586028934E-01 3.591696821E-01 3.625995139E-01
 3.618941997E-01 3.579543297E-01 3.574022135E-01 3.574356087E-01 3.575806809E-01
 1.782691544E-01 -6.896092495E-02 -6.956312670E-02 1.788197516E-01 -7.047782369E-02
 -5.713292349E-02 -8.034588523E-02 1.663785616E-01 6.093176421E-02 4.880073510E-02
 1.794737212E-01 1.903930002E-01 4.008247385E-01 4.013379206E-01 4.017743640E-01
 3.909872734E-01 4.108089630E-01 2.918858579E-01 3.015559965E-01 -1.950382042E-01
 -2.110989043E-01 5.795346175E-01 4.956174862E-01 5.791128982E-01 5.034093906E-01
 5.716692263E-01 5.799873350E-01 5.868090376E-01 7.168912488E-01 7.172549567E-01
 6.531317219E-01 6.591505644E-01 7.113017878E-01 7.175657847E-01 7.225905162E-01
 7.735078123E-01 7.771289431E-01 8.195956783E-01 8.221875713E-01 8.223565119E-01
 8.224554527E-01 8.235402264E-01 8.958967480E-01 9.037591546E-01 8.647575706E-01
 8.590118317E-01 9.307594493E-01 4.305031043E-01 4.329338557E-01 4.365619380E-01
 4.377198692E-01 4.376293874E-01 4.377059093E-01 4.380265759E-01 4.402865747E-01
 4.422823075E-01 4.402081272E-01 4.406408659E-01 4.302645819E-01 4.428586857E-01
 4.302645819E-01 4.302645819E-01 -5.683896320E-01 -5.683896320E-01 -4.446143534E-01
 -3.609238787E-01 -3.304868820E-01 3.576098113E-01 3.575946455E-01 -1.006370926E+00
 -1.070648544E+00 -1.076393301E+00 -1.044366023E+00 -1.257827835E+00 -1.263190812E+00
 -1.226500803E+00 -1.218195471E+00 -1.118269808E+00 -1.125374939E+00 -1.163129059E+00
 -1.175714588E+00 -1.306132168E+00 -1.312742692E+00 -1.338745086E+00 -1.342149880E+00
 -1.408534490E+00 -1.405927862E+00 -1.387027429E+00 -1.378999025E+00 -1.432443175E+00
 -1.437727077E+00 -1.458124225E+00 -1.461990688E+00 -5.146221240E-01 -5.290008324E-01
 -5.946375822E-01 -5.795192620E-01 -6.575326991E-01 -6.479520641E-01 -7.037854802E-01
 -7.184830813E-01 -4.544485609E-01 -7.766552229E-01 -7.864096154E-01 -8.406406202E-01
 -8.661352791E-01 -8.453212138E-01 -8.919378855E-01 -9.045828679E-01 -9.621611525E-01
 -9.996217572E-01 1.723188348E-01 1.857854274E-01 1.388505140E-01 1.502695056E-01
 1.202784900E-01 2.096069593E-01 2.182240218E-01 2.377716094E-01 2.426560294E-01
 2.626785334E-01 2.688033436E-01 2.890622095E-01 2.969726410E-01 3.128681165E-01
 3.223522470E-01 3.373417044E-01 4.302645819E-01 4.302645819E-01 4.262752483E-01
 4.368174436E-01 4.374901112E-01 4.376638066E-01 4.376217467E-01 4.376079332E-01
 4.276484969E-01 4.276193452E-01 4.227324523E-01 4.275054146E-01 4.191166309E-01
 4.141003328E-01 4.097802362E-01 4.031375786E-01 3.995642553E-01 3.884586398E-01
 3.832530156E-01 3.702078423E-01 3.626178322E-01 3.489357966E-01 -1.310140580E+00
 -1.143062881E+00 -1.141056672E+00 -1.139893852E+00 -8.967233069E-01 -1.163982790E+00
 -1.116224732E+00 -1.232109099E+00 -1.225447655E+00 -1.290107202E+00 -1.046959035E+00
 -8.943458130E-01 -9.339982869E-01 -8.829575469E-01 -1.037498809E+00 -8.017022527E-01
 -7.745025911E-01 -6.718484933E-01 -5.683896320E-01 -5.683896320E-01 5.446549104E-03
 -4.017030123E-03 3.434837688E-02 4.491731662E-02 1.080163605E-01 8.537333496E-02
 7.203250194E-02 -1.494443948E+00 -1.497094250E+00 -1.503596803E+00 -1.505084125E+00
 -1.517328990E+00 -1.517772945E+00 -1.526063499E+00 -1.528183922E+00 -1.541442502E+00
 -1.541383540E+00 -1.524250768E+00 -1.525609347E+00 -1.517410395E+00 -1.515805665E+00
 -1.517900302E+00 -1.514808359E+00 -1.494029410E+00 -1.453705168E+00 -1.450360526E+00
 -1.478566472E+00 -1.421626330E+00 -1.488805527E+00 -1.371850266E+00 -1.487867441E+00
 -1.487738593E+00 -1.366958958E+00 -1.400933746E+00 -1.326150124E+00 -1.412497442E+00
 -1.411695653E+00 -1.410718690E+00 -1.312043776E+00 -1.310854222E+00 -3.764960535E-02
 -2.570651578E-01 -3.024932977E-01 -9.149660175E-02 -4.852649448E-02 -2.334133583E-01
 -1.915933605E-01 -1.546987504E-01 -1.825541897E-01 -1.423867403E-01 -1.000408263E-01
 -3.234794424E-01 -3.709467592E-01 -1.411696216E-01 -4.341758362E-01 -3.862713411E-01
 182 183
 183 267
 267 268
 268 269
 269 270
 270 271
 271 272
 272 273
 273 274
 274 275
 275 276
 276 277
 277 278
 278 279
 279 280
 280 281
 281 282
 282 283
 283 288
 288 290
 290 291
 291 286
 286 284
 284 285
 285 287
 287 295
 295 296
 296 297
 297 293
 293 289
 289 292
 292 294
 294 298
 298 299
 299 240
 240 249
 249 247
 247 248
 248 245
 245 241
 241 242
 242 243
 243 246
 246 250
 250 254
 254 252
 252 244
 244 251
 251 253
 253 255
 255 256
 256 257
 257 258
 258 259
 208 209
 209 210
 210 211
 211 212
 212 213
 213 214
 214 215
 215 216
 216 217
 217 239
 239 238
 238 237
 237 236
 236 235
 235 234
 234 233
 233 232
 232 231
 231 230
 230 228
 228 229
 229 227
 227 226
 226 225
 225 224
 224 223
 223 222
 222 221
 221 220
 220 219
 219 218
 206 264
 264 265
 265 266
 266 263
 263 262
 262 260
 260 261
 261 300
 300 304
 304 303
 303 310
 310 313
 313 309
 309 307
 307 308
 308 306
 306 305
 305 301
 301 302
 302 311
 311 312
 312 315
 315 314
 314 192
 192 184
 184 185
 185 187
 187 186
 186 189
 189 188
 188 190
 190 191
 191 193
 193 194
 194 195
 195 197
 197 196
 196 198
 198 199
 199 200
 200 201
 201 160
 160 163
 163 161
 161 162
 162 168
 168 169
 169 170
 170 171
 171 167
 167 166
 166 164
 164 165
 165 172
 172 173
 173 174
 174 175
 175 179
 179 178
 178 177
 177 176
 176 180
 180 181
 181 182
 205 202
 202 203
 203 207
 207 208
 204 206
 205 204
 10 9
 9 8
 8 7
 7 6
 6 5
 5 4
 4 3
 3 1
 1 2
 2 68
 68 67
 67 66
 66 65
 65 64
 64 63
 63 62
 62 61
 61 60
 60 59
 59 58
 58 57
 57 56
 56 55
 55 54
 54 53
 53 52
 52 51
 51 50
 50 49
 49 48
 48 47
 47 46
 46 45
 45 44
 44 43
 43 42
 42 41
 41 40
 40 39
 39 38
 38 37
 37 36
 36 35
 35 34
 34 33
 33 32
 32 31
 31 30
 30 29
 29 27
 27 28
 28 26
 26 22
 22 25
 25 24
 24 23
 23 21
 21 20
 20 19
 19 18
 18 17
 17 16
 16 15
 15 14
 14 12
 12 13
 13 158
 158 159
 159 90
 90 89
 89 88
 88 87
 87 83
 83 84
 84 86
 86 85
 85 82
 82 81
 81 80
 80 79
 79 78
 78 77
 77 74
 74 73
 73 76
 76 75
 75 72
 72 71
 71 69
 69 70
 70 138
 138 139
 139 140
 140 142
 142 143
 143 141
 141 144
 144 145
 145 147
 147 148
 148 146
 146 150
 150 151
 151 149
 149 152
 106 109
 109 108
 108 102
 102 101
 101 94
 94 91
 91 98
 98 99
 99 100
 100 96
 96 92
 92 93
 93 95
 95 97
 97 110
 110 111
 111 157
 157 156
 156 155
 155 154
 154 153
 131 130
 130 129
 129 128
 128 127
 127 126
 126 125
 125 124
 124 120
 120 119
 119 123
 123 122
 122 121
 121 118
 118 117
 117 112
 112 114
 114 116
 116 115
 115 113
 113 107
 107 105
 105 104
 104 103
 103 106
 132 136
 136 135
 135 133
 133 134
 134 137
 137 11
 11 10
 131 132
ZONE T="COFFE, HM Y=-0.035"
 STRANDID=35, SOLUTIONTIME=405
 Nodes=298, Elements=296, ZONETYPE=FELineSeg
 DATAPACKING=BLOCK
 AUXDATA CGNS.CGNSBase_t="Base"
 AUXDATA CGNS.Zone_t="Zone"
 DT=(DOUBLE DOUBLE DOUBLE DOUBLE )
 -2.276399770E-01 -2.249231355E-01 -2.280055277E-01 -2.304602517E-01 -2.306674503E-01
 -2.327578924E-01 -2.328446697E-01 -2.345821490E-01 -2.346820687E-01 -2.360706791E-01
 -2.361220745E-01 -2.371996598E-01 -2.372962260E-01 -2.385746155E-01 -2.381173498E-01
 -2.388782878E-01 -2.397305483E-01 -2.398067757E-01 -1.394592723E-02 -2.242354850E-01
 -2.459925571E-01 -2.457732067E-01 -2.457544889E-01 -2.455062199E-01 -2.451306538E-01
 -2.454442768E-01 -2.451152421E-01 -2.447857837E-01 -2.447069056E-01 -2.443293833E-01
 -2.442980072E-01 -2.439177396E-01 -2.438199179E-01 -2.434388632E-01 -2.432978215E-01
 -2.426938390E-01 -2.430874392E-01 -2.426749412E-01 -2.421581457E-01 -2.421468262E-01
 -2.415052891E-01 -2.414482437E-01 -2.407114985E-01 -2.406607314E-01 7.201390528E-01
 6.659265400E-01 6.314381421E-01 6.345984547E-01 6.400356705E-01 6.018438659E-01
 5.909774009E-01 5.694598983E-01 5.479665339E-01 5.360015911E-01 5.082803121E-01
 5.002589725E-01 4.671578533E-01 4.625671271E-01 4.328007129E-01 4.239837335E-01
 3.694545713E-01 3.981861126E-01 3.676036410E-01 3.655636824E-01 -2.463455644E-01
 -2.463270240E-01 -2.462045704E-01 -2.460362710E-01 -2.461932147E-01 -2.463581311E-01
 -2.464378915E-01 -2.464217886E-01 -2.464171299E-01 -2.464368378E-01 -2.462019380E-01
 -2.463018851E-01 -2.463463022E-01 -2.463801133E-01 -2.464091471E-01 6.800130497E-01
 6.935736189E-01 7.067007455E-01 7.079759138E-01 7.100194137E-01 -6.327772618E-02
 -8.918323905E-02 -8.993517557E-02 -3.904725692E-02 -6.263277009E-02 -2.192613128E-02
 -9.616997464E-02 -1.131873496E-01 -1.157581777E-01 -1.578894764E-01 -1.370010998E-01
 -1.385635449E-01 -1.526923844E-01 -1.580985972E-01 -1.583854788E-01 -1.734461631E-01
 -1.914546533E-01 -1.989193256E-01 -1.756333659E-01 -1.836203528E-01 -1.902104022E-01
 -1.992345159E-01 -2.059873237E-01 -2.070225349E-01 -2.125743532E-01 -2.082215945E-01
 -2.125436132E-01 -2.126911597E-01 -2.184135739E-01 -2.164362719E-01 -2.204019871E-01
 -2.212051133E-01 3.382055521E-01 3.057397069E-01 2.286465518E-01 2.249225534E-01
 3.044527938E-01 5.234693647E-02 2.839448847E-02 8.965137118E-02 6.803287886E-02
 1.101773782E-01 1.745826266E-02 1.330815109E-01 1.494441068E-01 2.963416107E-01
 2.642113625E-01 2.579342404E-01 1.636103200E-01 1.815767715E-01 1.745229414E-01
 3.035759078E-01 2.028549958E-01 -1.007836782E-02 7.386058150E-01 7.376314890E-01
 7.370446845E-01 7.374712109E-01 7.360872355E-01 7.341913557E-01 7.355575802E-01
 7.262809489E-01 7.308033615E-01 7.305034798E-01 7.299551207E-01 7.233617835E-01
 -2.374114334E-01 -2.382680775E-01 -2.373605775E-01 -2.363948353E-01 -2.363127247E-01
 -2.352504306E-01 -2.340423887E-01 -2.352181596E-01 -2.272691589E-01 -2.274483733E-01
 -2.249620157E-01 -2.253744124E-01 -2.223231553E-01 -2.225884246E-01 -2.189386199E-01
 -2.194188785E-01 -2.149070532E-01 -2.160423991E-01 -2.077073012E-01 -2.104436704E-01
 -2.111093218E-01 -2.065205785E-01 -2.020123198E-01 -2.292324349E-01 -2.292945086E-01
 -2.309446313E-01 -2.310404143E-01 -3.963789068E-02 -3.884792062E-02 -6.838679634E-02
 -6.879281250E-02 -9.444586333E-02 -9.786258642E-02 -1.236617930E-01 -1.172463707E-01
 -1.398076875E-01 -1.468556616E-01 -1.535732840E-01 3.542664466E-01 3.805148183E-01
 3.853145203E-01 -2.438476269E-01 -2.443292652E-01 -2.438147326E-01 -2.443407577E-01
 -2.445562653E-01 -2.451960208E-01 -2.447872872E-01 -2.448023158E-01 -2.449598036E-01
 -2.452094498E-01 -2.455439326E-01 -2.455548047E-01 -2.457927881E-01 -2.459103638E-01
 -2.460020761E-01 -2.460568042E-01 -2.462019380E-01 -1.910916587E-01 -2.010889547E-01
 -1.954623309E-01 -1.883793743E-01 -1.865869116E-01 -1.983228207E-01 -1.961763449E-01
 -1.850438629E-01 -1.762842742E-01 -1.601716689E-01 -1.660365243E-01 -1.742203910E-01
 -2.325847099E-01 -2.326191327E-01 -2.339959081E-01 7.044795609E-01 7.082754182E-01
 7.134358886E-01 6.950151793E-01 7.238904011E-01 7.198336355E-01 6.832543678E-01
 6.678806016E-01 7.325741886E-01 7.344324599E-01 7.356401699E-01 7.275814037E-01
 7.307584730E-01 7.317942908E-01 7.365347142E-01 7.374730658E-01 7.375862062E-01
 7.376805414E-01 1.405459827E-01 1.948211540E-01 2.014933413E-01 2.333225501E-01
 1.844477385E-01 1.538209861E-01 1.682639416E-01 1.238373691E-01 3.211564913E-01
 3.203328518E-01 2.756293110E-01 2.346116208E-01 2.706615369E-01 3.232957509E-01
 6.382129818E-01 4.098353819E-01 3.893673091E-01 6.375591544E-01 6.379734723E-01
 4.407037464E-01 4.726954095E-01 4.354191211E-01 4.380203370E-01 4.763112464E-01
 6.080703553E-01 5.963789089E-01 5.763761187E-01 5.445610611E-01 5.563316922E-01
 5.175308807E-01 5.098748176E-01 4.769663176E-01 7.386058150E-01 -2.383274728E-01
 -2.390372474E-01 -2.391755915E-01 -2.399060716E-01 -2.399311830E-01 -2.406285089E-01
 -2.406678672E-01 -2.413282849E-01 -2.413664011E-01 -2.420069744E-01 -2.426342389E-01
 -2.420189908E-01 -2.426763324E-01 -2.432893386E-01 -2.432552558E-01 1.072482563E-01
 8.391894352E-02 4.656246076E-02 7.140017200E-02 2.369192902E-03 -1.405431440E-02
 1.006407351E-02 3.948842422E-02 1.285846141E-02
 -3.500000000E-02 -3.500000000E-02 -3.500000000E-02 -3.500000000E-02 -3.500000000E-02
 -3.500000000E-02 -3.500000000E-02 -3.500000000E-02 -3.500000000E-02 -3.500000000E-02
 -3.500000000E-02 -3.500000000E-02 -3.500000000E-02 -3.500000000E-02 -3.500000000E-02
 -3.500000000E-02 -3.500000000E-02 -3.500000000E-02 -3.500000000E-02 -3.500000000E-02
 -3.500000000E-02 -3.500000000E-02 -3.500000000E-02 -3.500000000E-02 -3.500000000E-02