TITLE     = "Translation of CGNS file naca0012Flow00003763.cgns"
VARIABLES = "x"
"y"
"z"
"Cp"
DATASETAUXDATA Common.DensityVar="4"
DATASETAUXDATA Common.PressureVar="10"
DATASETAUXDATA Common.TemperatureVar="9"
DATASETAUXDATA Common.UVar="5"
DATASETAUXDATA Common.VectorVarsAreVelocity="TRUE"
DATASETAUXDATA Common.VVar="6"
DATASETAUXDATA Common.WVar="7"
ZONE T="COFFE, HM Y=-0.001"
 STRANDID=34, SOLUTIONTIME=3763
 Nodes=524, Elements=522, ZONETYPE=FELineSeg
 DATAPACKING=BLOCK
 AUXDATA CGNS.CGNSBase_t="Base"
 AUXDATA CGNS.Zone_t="Zone"
 DT=(DOUBLE DOUBLE DOUBLE DOUBLE )
 2.103314575E-01 2.250043528E-01 2.058721555E-01 1.910076618E-01 1.864073376E-01
 2.293203643E-01 2.431281559E-01 2.482642648E-01 2.612986458E-01 1.671960245E-01
 1.714097447E-01 1.522025713E-01 2.670473945E-01 2.792639545E-01 2.958936203E-01
 2.848359678E-01 3.012977972E-01 3.122572054E-01 3.179406303E-01 3.297401579E-01
 3.351702619E-01 3.481164949E-01 3.531092812E-01 3.666839841E-01 3.717124156E-01
 3.855181816E-01 3.917075099E-01 4.053138960E-01 4.116038460E-01 4.316401056E-01
 4.455658273E-01 4.253127873E-01 4.509762617E-01 4.647886886E-01 4.877042631E-01
 5.016385951E-01 4.695969389E-01 4.834384586E-01 -5.564141217E-02 -5.193750455E-02
 -7.199195521E-02 -6.863248842E-02 -8.452915904E-02 -8.796080674E-02 -2.438980375E-01
 -2.440836927E-01 -2.438475377E-01 -2.436552914E-01 -2.436064591E-01 -2.434056606E-01
 -2.433509684E-01 -2.431417121E-01 -2.430884378E-01 -2.428658187E-01 -2.428046674E-01
 -2.425680790E-01 -2.425070265E-01 -2.419079799E-01 -2.421806955E-01 -2.422512790E-01
 -2.418377329E-01 -2.411512111E-01 -2.414628558E-01 -2.415437629E-01 -2.410713483E-01
 -2.402915294E-01 -2.406447588E-01 -2.407370019E-01 -2.402010494E-01 -2.393202834E-01
 -2.397203868E-01 -2.398236276E-01 -2.392175673E-01 -2.387832686E-01 -2.386633410E-01
 5.066792305E-01 5.207855430E-01 5.263693054E-01 5.407865264E-01 5.464187876E-01
 5.608354872E-01 5.666060697E-01 5.807469431E-01 5.862509021E-01 6.002787353E-01
 6.050771859E-01 6.189738200E-01 6.239996591E-01 6.377325646E-01 6.423490555E-01
 6.556708312E-01 6.602283323E-01 6.726335755E-01 6.761615727E-01 6.877117002E-01
 6.899268241E-01 7.013435968E-01 7.017347202E-01 7.032037383E-01 7.118181700E-01
 7.196388940E-01 7.130733094E-01 7.199274032E-01 7.199731310E-01 7.249436684E-01
 7.252341561E-01 7.284724878E-01 7.289117242E-01 7.313006819E-01 7.316917918E-01
 7.333903849E-01 7.337707995E-01 7.362628046E-01 7.365037918E-01 7.353491348E-01
 7.350505621E-01 7.372527074E-01 7.374235206E-01 7.376657869E-01 7.380738906E-01
 7.384002214E-01 -2.381974153E-01 -2.375696970E-01 -2.380770891E-01 -2.361569157E-01
 -2.367472817E-01 -2.368871694E-01 -2.374296724E-01 -2.359930215E-01 -2.353605804E-01
 -2.345093452E-01 -2.343190130E-01 -2.351959045E-01 -2.462781562E-01 -2.462188709E-01
 -2.463387283E-01 -2.462940349E-01 -2.463860916E-01 -2.463501032E-01 -2.464188957E-01
 -2.463944648E-01 -2.464358632E-01 -2.464234956E-01 -2.462019380E-01 -2.464374942E-01
 -2.464375017E-01 -2.464237960E-01 -2.464359886E-01 -2.464189259E-01 -2.463945892E-01
 -9.990128046E-02 -1.028696407E-01 -1.378574215E-01 -1.401460549E-01 -1.138263855E-01
 -1.165768398E-01 -1.266497578E-01 -1.288411208E-01 -1.918835998E-01 -1.955996144E-01
 -1.481971551E-01 -1.501514795E-01 -1.908821046E-01 -1.743074030E-01 -1.728143889E-01
 -1.795124150E-01 -1.807918450E-01 -1.866827864E-01 -1.854626881E-01 -1.572542452E-01
 -1.591151692E-01 -1.655215095E-01 -1.670879494E-01 -2.443536319E-01 -2.443069953E-01
 -2.445666636E-01 -2.445251280E-01 -2.447729947E-01 -2.447303354E-01 -2.449670556E-01
 -2.449293513E-01 -2.451533867E-01 -2.451150102E-01 -2.441288371E-01 -2.452933449E-01
 -2.453269082E-01 -2.454578546E-01 -2.454915990E-01 -2.456138143E-01 -2.456428966E-01
 -2.457554435E-01 -2.457841764E-01 -2.458872060E-01 -2.459114449E-01 -2.460041124E-01
 -2.460274358E-01 -2.461097638E-01 -2.461287834E-01 -2.462000399E-01 -2.462175458E-01
 -2.462776298E-01 -2.462910513E-01 -2.463393678E-01 -2.463506582E-01 -2.463870760E-01
 -1.965483336E-01 -2.007027772E-01 -1.999057782E-01 -2.037235474E-01 -2.044918439E-01
 -2.072534828E-01 -2.079081746E-01 -2.104903510E-01 -2.110002059E-01 -2.133956179E-01
 -2.137996964E-01 -2.159209767E-01 -2.164104319E-01 -2.183168006E-01 -2.187499810E-01
 -2.204470216E-01 -2.208839914E-01 -2.224383930E-01 -2.228084308E-01 -2.242134324E-01
 -2.245802632E-01 -2.258906174E-01 -2.262069777E-01 -2.274106656E-01 -2.277254587E-01
 -2.288461175E-01 -2.291130998E-01 -2.301286183E-01 -2.303895683E-01 -2.313229956E-01
 -2.315410531E-01 -2.323880602E-01 -2.326061469E-01 -2.333984078E-01 -2.335874392E-01
 -3.858056293E-02 -3.489486681E-02 -2.115307229E-02 -1.677600135E-02 -2.711695307E-03
 1.735050042E-03 1.621532735E-02 2.039232972E-02 3.882383851E-02 3.434782610E-02
 5.257972180E-02 5.682169618E-02 7.115094643E-02 7.531308110E-02 8.986889659E-02
 9.460329379E-02 1.090634582E-01 1.135114795E-01 1.281186857E-01 1.328948794E-01
 1.477013887E-01 7.386058150E-01 -4.831723895E-02 -5.124860633E-02 -6.749534883E-02
 -6.421560339E-02 -8.276149941E-02 -7.954912701E-02 -9.411397506E-02 -9.677974832E-02
 -3.456126502E-02 -3.108606432E-02 -1.702311269E-02 -1.298074559E-02 1.093787422E-03
 5.713017167E-03 2.004681263E-02 2.457807597E-02 3.912768238E-02 4.315480083E-02
 5.685485679E-02 6.102532076E-02 7.442157150E-02 7.839696270E-02 9.245117545E-02
 -2.279987639E-01 -2.282081802E-01 -2.292304135E-01 -2.290191038E-01 -2.301811013E-01
 -2.299984951E-01 -2.268922776E-01 -2.271315537E-01 -2.257438818E-01 -2.259793025E-01
 -2.231868347E-01 -2.234544843E-01 -2.244940457E-01 -2.247641353E-01 -2.220490293E-01
 -2.217319635E-01 -2.308943592E-01 -2.205006876E-01 -2.201770615E-01 -2.188244420E-01
 -2.184444602E-01 -2.170027670E-01 -2.166252350E-01 -2.150678657E-01 -2.146331888E-01
 -2.129715933E-01 -2.125350464E-01 -2.107047334E-01 -2.101920196E-01 -2.082138744E-01
 -1.866938623E-01 -1.876518199E-01 -1.918533987E-01 -1.910415493E-01 -1.819774272E-01
 -1.829832229E-01 -1.766536426E-01 -1.778420441E-01 -1.656738596E-01 -1.641674727E-01
 -1.708148972E-01 -1.720750131E-01 -2.077042392E-01 -2.050026690E-01 -2.054944040E-01
 -2.019387721E-01 -2.025545240E-01 -1.957462564E-01 -1.949500045E-01 -1.986222321E-01
 -1.992896611E-01 -2.461093731E-01 -2.461826361E-01 -2.460050477E-01 -2.460857325E-01
 -2.458829194E-01 -2.459806302E-01 -2.457426392E-01 -2.458542065E-01 -2.454179383E-01
 -2.455540020E-01 -2.455887165E-01 -2.457132609E-01 -2.462019380E-01 -2.453828130E-01
 7.208779874E-01 7.256076414E-01 7.209357020E-01 7.289707861E-01 7.258901359E-01
 7.316625383E-01 7.293910244E-01 7.320357122E-01 7.336498864E-01 7.340105065E-01
 7.352295809E-01 7.204772008E-01 -2.325238015E-01 -2.326824594E-01 -2.317482300E-01
 -2.319062252E-01 -2.310775994E-01 -2.332610918E-01 -2.333980344E-01 -2.339336698E-01
 -2.340722053E-01 -2.345808678E-01 -2.347030400E-01 -2.351824347E-01 -2.353079256E-01
 -2.357661389E-01 -2.358760451E-01 -2.363085475E-01 -2.364214908E-01 -2.368358781E-01
 -2.369357569E-01 -2.373278197E-01 -2.374304709E-01 -2.378053460E-01 -2.378958712E-01
 -2.382486088E-01 -2.383404926E-01 -2.386768876E-01 -2.452349043E-01 -2.450352445E-01
 -2.451940732E-01 -2.448242219E-01 -2.449945122E-01 -2.445969090E-01 -2.447774725E-01
 -2.445508444E-01 -2.443595470E-01 -2.441066441E-01 -2.443073112E-01 -2.435687494E-01
 -2.437878428E-01 -2.440557083E-01 -2.438450910E-01 -2.435133464E-01 4.444465070E-01
 4.383198943E-01 4.578866681E-01 4.631032043E-01 4.764307200E-01 4.810645758E-01
 4.944055332E-01 4.985145314E-01 5.119313362E-01 5.167823604E-01 5.303517850E-01
 5.357203199E-01 5.495750905E-01 5.549848640E-01 5.688251312E-01 5.743622001E-01
 5.879238248E-01 5.931997030E-01 6.066392954E-01 6.112342512E-01 6.245316381E-01
 6.293418756E-01 6.424596299E-01 6.468877084E-01 6.594900138E-01 6.639721022E-01
 6.753021327E-01 6.791732252E-01 6.893121235E-01 6.923735895E-01 7.015605576E-01
 7.046235394E-01 7.106099770E-01 7.135990010E-01 7.144824166E-01 4.251589711E-01
 4.189561985E-01 4.057638907E-01 3.998580219E-01 3.864684121E-01 3.813997642E-01
 3.683531989E-01 3.632370281E-01 3.509097120E-01 3.455054353E-01 3.341962349E-01
 3.286715859E-01 3.180515694E-01 3.128912941E-01 3.019645755E-01 2.968769133E-01
 2.846549139E-01 2.796077912E-01 2.664924486E-01 2.617696727E-01 2.481413111E-01
 2.440226284E-01 2.296900673E-01 2.252626405E-01 2.107903856E-01 2.061162791E-01
 1.914568037E-01 1.872423599E-01 1.725478443E-01 1.679973822E-01 1.535227599E-01
 1.486542859E-01 1.343062339E-01 1.298722256E-01 1.155780796E-01 1.109006518E-01
 9.648970850E-02 -1.072113421E-01 -1.098550164E-01 -1.195748032E-01 -1.216177351E-01
 -1.301826744E-01 -1.323360675E-01 -1.399915525E-01 -1.419207484E-01 -1.487930633E-01
 -1.506627390E-01 -1.569363932E-01 -1.585130654E-01 7.363828322E-01 7.366073246E-01
 7.355093884E-01 7.381103272E-01 7.386058150E-01 7.384444762E-01 7.376689659E-01
 7.373283507E-01 7.374836158E-01 -2.395489929E-01 -2.398505856E-01 -2.426173896E-01
 -2.426834331E-01 -2.394730111E-01 -2.399302814E-01 -2.402262006E-01 -2.402987490E-01
 -2.406644571E-01 -2.405879670E-01 -2.410185278E-01 -2.409488565E-01 -2.413696969E-01
 -2.412963638E-01 -2.416421156E-01 -2.417087204E-01 -2.420438254E-01 -2.419739594E-01
 -2.423661322E-01 -2.423029148E-01 -2.429278211E-01 -2.429873118E-01 -2.432232244E-01
 -2.432850703E-01 -2.387578727E-01 -2.391620276E-01 -2.390779170E-01
 -1.000000000E-03 -1.000000000E-03 -1.000000000E-03 -1.000000000E-03 -1.000000000E-03
 -1.000000000E-03 -1.000000000E-03 -1.000000000E-03 -1.000000000E-03 -1.000000000E-03
 -1.000000000E-03 -1.000000000E-03 -1.000000000E-03 -1.000000000E-03 -1.000000000E-03
 -1.000000000E-03 -1.000000000E-03 -1.000000000E-03 -1.000000000E-03 -1.000000000E-03
 -1.000000000E-03 -1.000000000E-03 -1.000000000E-03 -1.000000000E-03 -1.000000000E-03
 -1.000000000E-03 -1.000000000E-03 -1.000000000E-03 -1.000000000E-03 -1.000000000E-03
 -1.000000000E-03 -1.000000000E-03 -1.000000000E-03 -1.000000000E-03 -1.000000000E-03
 -1.000000000E-03 -1.000000000E-03 -1.000000000E-03 -1.000000000E-03 -1.000000000E-03
 -1.000000000E-03 -1.000000000E-03 -1.000000000E-03 -1.000000000E-03 -1.000000000E-03
 -1.000000000E-03 -1.000000000E-03 -1.000000000E-03 -1.000000000E-03 -1.000000000E-03
 -1.000000000E-03 -1.000000000E-03 -1.000000000E-03 -1.000000000E-03 -1.000000000E-03
 -1.000000000E-03 -1.000000000E-03 -1.000000000E-03 -1.000000000E-03 -1.000000000E-03
 -1.000000000E-03 -1.000000000E-03 -1.000000000E-03 -1.000000000E-03 -1.000000000E-03
 -1.000000000E-03 -1.000000000E-03 -1.000000000E-03 -1.000000000E-03 -1.000000000E-03
 -1.000000000E-03 -1.000000000E-03 -1.000000000E-03 -1.000000000E-03 -1.000000000E-03
 -1.000000000E-03 -1.000000000E-03 -1.000000000E-03 -1.000000000E-03 -1.000000000E-03
 -1.000000000E-03 -1.000000000E-03 -1.000000000E-03 -1.000000000E-03 -1.000000000E-03
 -1.000000000E-03 -1.000000000E-03 -1.000000000E-03 -1.000000000E-03 -1.000000000E-03
 -1.000000000E-03 -1.000000000E-03 -1.000000000E-03 -1.000000000E-03 -1.000000000E-03
 -1.000000000E-03 -1.000000000E-03 -1.000000000E-03 -1.000000000E-03 -1.000000000E-03
 -1.000000000E-03 -1.000000000E-03 -1.000000000E-03 -1.000000000E-03 -1.000000000E-03
 -1.000000000E-03 -1.000000000E-03 -1.000000000E-03 -1.000000000E-03 -1.000000000E-03
 -1.000000000E-03 -1.000000000E-03 -1.000000000E-03 -1.000000000E-03 -1.000000000E-03
 -1.000000000E-03 -1.000000000E-03 -1.000000000E-03 -1.000000000E-03 -1.000000000E-03
 -1.000000000E-03 -1.000000000E-03 -1.000000000E-03 -1.000000000E-03 -1.000000000E-03
 -1.000000000E-03 -1.000000000E-03 -1.000000000E-03 -1.000000000E-03 -1.000000000E-03
 -1.000000000E-03 -1.000000000E-03 -1.000000000E-03 -1.000000000E-03 -1.000000000E-03
 -1.000000000E-03 -1.000000000E-03 -1.000000000E-03 -1.000000000E-03 -1.000000000E-03
 -1.000000000E-03 -1.000000000E-03 -1.000000000E-03 -1.000000000E-03 -1.000000000E-03
 -1.000000000E-03 -1.000000000E-03 -1.000000000E-03 -1.000000000E-03 -1.000000000E-03
 -1.000000000E-03 -1.000000000E-03 -1.000000000E-03 -1.000000000E-03 -1.000000000E-03
 -1.000000000E-03 -1.000000000E-03 -1.000000000E-03 -1.000000000E-03 -1.000000000E-03
 -1.000000000E-03 -1.000000000E-03 -1.000000000E-03 -1.000000000E-03 -1.000000000E-03
 -1.000000000E-03 -1.000000000E-03 -1.000000000E-03 -1.000000000E-03 -1.000000000E-03
 -1.000000000E-03 -1.000000000E-03 -1.000000000E-03 -1.000000000E-03 -1.000000000E-03
 -1.000000000E-03 -1.000000000E-03 -1.000000000E-03 -1.000000000E-03 -1.000000000E-03
 -1.000000000E-03 -1.000000000E-03 -1.000000000E-03 -1.000000000E-03 -1.000000000E-03
 -1.000000000E-03 -1.000000000E-03 -1.000000000E-03 -1.000000000E-03 -1.000000000E-03
 -1.000000000E-03 -1.000000000E-03 -1.000000000E-03 -1.000000000E-03 -1.000000000E-03
 -1.000000000E-03 -1.000000000E-03 -1.000000000E-03 -1.000000000E-03 -1.000000000E-03
 -1.000000000E-03 -1.000000000E-03 -1.000000000E-03 -1.000000000E-03 -1.000000000E-03
 -1.000000000E-03 -1.000000000E-03 -1.000000000E-03 -1.000000000E-03 -1.000000000E-03
 -1.000000000E-03 -1.000000000E-03 -1.000000000E-03 -1.000000000E-03 -1.000000000E-03
 -1.000000000E-03 -1.000000000E-03 -1.000000000E-03 -1.000000000E-03 -1.000000000E-03
 -1.000000000E-03 -1.000000000E-03 -1.000000000E-03 -1.000000000E-03 -1.000000000E-03
 -1.000000000E-03 -1.000000000E-03 -1.000000000E-03 -1.000000000E-03 -1.000000000E-03
 -1.000000000E-03 -1.000000000E-03 -1.000000000E-03 -1.000000000E-03 -1.000000000E-03
 -1.000000000E-03 -1.000000000E-03 -1.000000000E-03 -1.000000000E-03 -1.000000000E-03
 -1.000000000E-03 -1.000000000E-03 -1.000000000E-03 -1.000000000E-03 -1.000000000E-03
 -1.000000000E-03 -1.000000000E-03 -1.000000000E-03 -1.000000000E-03 -1.000000000E-03
 -1.000000000E-03 -1.000000000E-03 -1.000000000E-03 -1.000000000E-03 -1.000000000E-03
 -1.000000000E-03 -1.000000000E-03 -1.000000000E-03 -1.000000000E-03 -1.000000000E-03
 -1.000000000E-03 -1.000000000E-03 -1.000000000E-03 -1.000000000E-03 -1.000000000E-03
 -1.000000000E-03 -1.000000000E-03 -1.000000000E-03 -1.000000000E-03 -1.000000000E-03
 -1.000000000E-03 -1.000000000E-03 -1.000000000E-03 -1.000000000E-03 -1.000000000E-03
 -1.000000000E-03 -1.000000000E-03 -1.000000000E-03 -1.000000000E-03 -1.000000000E-03
 -1.000000000E-03 -1.000000000E-03 -1.000000000E-03 -1.000000000E-03 -1.000000000E-03
 -1.000000000E-03 -1.000000000E-03 -1.000000000E-03 -1.000000000E-03 -1.000000000E-03
 -1.000000000E-03 -1.000000000E-03 -1.000000000E-03 -1.000000000E-03 -1.000000000E-03
 -1.000000000E-03 -1.000000000E-03 -1.000000000E-03 -1.000000000E-03 -1.000000000E-03
 -1.000000000E-03 -1.000000000E-03 -1.000000000E-03 -1.000000000E-03 -1.000000000E-03
 -1.000000000E-03 -1.000000000E-03 -1.000000000E-03 -1.000000000E-03 -1.000000000E-03
 -1.000000000E-03 -1.000000000E-03 -1.000000000E-03 -1.000000000E-03 -1.000000000E-03
 -1.000000000E-03 -1.000000000E-03 -1.000000000E-03 -1.000000000E-03 -1.000000000E-03
 -1.000000000E-03 -1.000000000E-03 -1.000000000E-03 -1.000000000E-03 -1.000000000E-03
 -1.000000000E-03 -1.000000000E-03 -1.000000000E-03 -1.000000000E-03 -1.000000000E-03
 -1.000000000E-03 -1.000000000E-03 -1.000000000E-03 -1.000000000E-03 -1.000000000E-03
 -1.000000000E-03 -1.000000000E-03 -1.000000000E-03 -1.000000000E-03 -1.000000000E-03
 -1.000000000E-03 -1.000000000E-03 -1.000000000E-03 -1.000000000E-03 -1.000000000E-03
 -1.000000000E-03 -1.000000000E-03 -1.000000000E-03 -1.000000000E-03 -1.000000000E-03
 -1.000000000E-03 -1.000000000E-03 -1.000000000E-03 -1.000000000E-03 -1.000000000E-03
 -1.000000000E-03 -1.000000000E-03 -1.000000000E-03 -1.000000000E-03 -1.000000000E-03
 -1.000000000E-03 -1.000000000E-03 -1.000000000E-03 -1.000000000E-03 -1.000000000E-03
 -1.000000000E-03 -1.000000000E-03 -1.000000000E-03 -1.000000000E-03 -1.000000000E-03
 -1.000000000E-03 -1.000000000E-03 -1.000000000E-03 -1.000000000E-03 -1.000000000E-03
 -1.000000000E-03 -1.000000000E-03 -1.000000000E-03 -1.000000000E-03 -1.000000000E-03
 -1.000000000E-03 -1.000000000E-03 -1.000000000E-03 -1.000000000E-03 -1.000000000E-03
 -1.000000000E-03 -1.000000000E-03 -1.000000000E-03 -1.000000000E-03 -1.000000000E-03
 -1.000000000E-03 -1.000000000E-03 -1.000000000E-03 -1.000000000E-03 -1.000000000E-03
 -1.000000000E-03 -1.000000000E-03 -1.000000000E-03 -1.000000000E-03 -1.000000000E-03
 -1.000000000E-03 -1.000000000E-03 -1.000000000E-03 -1.000000000E-03 -1.000000000E-03
 -1.000000000E-03 -1.000000000E-03 -1.000000000E-03 -1.000000000E-03 -1.000000000E-03
 -1.000000000E-03 -1.000000000E-03 -1.000000000E-03 -1.000000000E-03 -1.000000000E-03
 -1.000000000E-03 -1.000000000E-03 -1.000000000E-03 -1.000000000E-03 -1.000000000E-03
 -1.000000000E-03 -1.000000000E-03 -1.000000000E-03 -1.000000000E-03 -1.000000000E-03
 -1.000000000E-03 -1.000000000E-03 -1.000000000E-03 -1.000000000E-03 -1.000000000E-03
 -1.000000000E-03 -1.000000000E-03 -1.000000000E-03 -1.000000000E-03 -1.000000000E-03
 -1.000000000E-03 -1.000000000E-03 -1.000000000E-03 -1.000000000E-03 -1.000000000E-03
 -1.000000000E-03 -1.000000000E-03 -1.000000000E-03 -1.000000000E-03 -1.000000000E-03
 -1.000000000E-03 -1.000000000E-03 -1.000000000E-03 -1.000000000E-03 -1.000000000E-03
 -1.000000000E-03 -1.000000000E-03 -1.000000000E-03 -1.000000000E-03 -1.000000000E-03
 -1.000000000E-03 -1.000000000E-03 -1.000000000E-03 -1.000000000E-03 -1.000000000E-03
 -1.000000000E-03 -1.000000000E-03 -1.000000000E-03 -1.000000000E-03 -1.000000000E-03
 -1.000000000E-03 -1.000000000E-03 -1.000000000E-03 -1.000000000E-03 -1.000000000E-03
 -1.000000000E-03 -1.000000000E-03 -1.000000000E-03 -1.000000000E-03 -1.000000000E-03
 -1.000000000E-03 -1.000000000E-03 -1.000000000E-03 -1.000000000E-03 -1.000000000E-03
 -1.000000000E-03 -1.000000000E-03 -1.000000000E-03 -1.000000000E-03 -1.000000000E-03
 -1.000000000E-03 -1.000000000E-03 -1.000000000E-03 -1.000000000E-03 -1.000000000E-03
 -1.000000000E-03 -1.000000000E-03 -1.000000000E-03 -1.000000000E-03 -1.000000000E-03
 -1.000000000E-03 -1.000000000E-03 -1.000000000E-03 -1.000000000E-03 -1.000000000E-03
 -1.000000000E-03 -1.000000000E-03 -1.000000000E-03 -1.000000000E-03 -1.000000000E-03
 -1.000000000E-03 -1.000000000E-03 -1.000000000E-03 -1.000000000E-03 -1.000000000E-03
 -1.000000000E-03 -1.000000000E-03 -1.000000000E-03 -1.000000000E-03 -1.000000000E-03
 -1.000000000E-03 -1.000000000E-03 -1.000000000E-03 -1.000000000E-03 -1.000000000E-03
 -1.000000000E-03 -1.000000000E-03 -1.000000000E-03 -1.000000000E-03
 -9.241416221E-02 -9.411421701E-02 -9.188729197E-02 -9.009454710E-02 -8.952820648E-02
 -9.460428048E-02 -9.614435518E-02 -9.670585172E-02 -9.810680580E-02 -8.710130854E-02
 -8.764243002E-02 -8.513459734E-02 -9.871243303E-02 -9.997913915E-02 -1.016546728E-01
 -1.005462040E-01 -1.021878598E-01 -1.032515473E-01 -1.037953206E-01 -1.049039419E-01
 -1.054066619E-01 -1.065833548E-01 -1.070297371E-01 -1.082222764E-01 -1.086562971E-01
 -1.098272669E-01 -1.103425021E-01 -1.114544563E-01 -1.119589343E-01 -1.135265209E-01
 -1.145811906E-01 -1.130378314E-01 -1.149834789E-01 -1.159910605E-01 -1.176028014E-01
 -1.185463200E-01 -1.163354951E-01 -1.173084176E-01 -4.865144926E-02 -4.951145501E-02
 -4.472353370E-02 -4.554938635E-02 -4.155458621E-02 -4.066023006E-02 3.140568147E-02
 3.175905861E-02 3.131172022E-02 3.096182800E-02 3.087481022E-02 3.052440294E-02
 3.043087867E-02 3.008019528E-02 2.999259829E-02 2.963367041E-02 2.953689285E-02
 2.916967779E-02 2.907659826E-02 2.819716368E-02 2.859036581E-02 2.869407010E-02
 2.809761659E-02 2.715948687E-02 2.757797603E-02 2.768861593E-02 2.705404455E-02
 2.606077355E-02 2.650294906E-02 2.662051997E-02 2.594939770E-02 2.490284707E-02
 2.537022628E-02 2.549299140E-02 2.478480531E-02 2.429453502E-02 2.416137070E-02
 -1.188808876E-01 -1.197984083E-01 -1.201537220E-01 -1.210513685E-01 -1.213939921E-01
 -1.222506589E-01 -1.225854196E-01 -1.233852691E-01 -1.236889116E-01 -1.244427103E-01
 -1.246939366E-01 -1.254021956E-01 -1.256510704E-01 -1.263122521E-01 -1.265277238E-01
 -1.271318085E-01 -1.273318488E-01 -1.278602688E-01 -1.280059230E-01 -1.284686648E-01
 -1.285550037E-01 -1.289863681E-01 -1.290008262E-01 -1.290533513E-01 -1.293622140E-01
 -1.296305256E-01 -1.294060481E-01 -1.296404045E-01 -1.296419305E-01 -1.298065381E-01
 -1.298159953E-01 -1.299207112E-01 -1.299347385E-01 -1.300106041E-01 -1.300229103E-01
 -1.300761200E-01 -1.300879544E-01 -1.301648790E-01 -1.301722493E-01 -1.301368155E-01
 -1.301276141E-01 -1.301950882E-01 -1.302002848E-01 -1.302076368E-01 -1.302200249E-01
 -1.302299071E-01 2.365323477E-02 2.298931162E-02 2.352412551E-02 2.156943683E-02
 2.215120147E-02 2.229145851E-02 2.284412359E-02 2.141047891E-02 2.080765445E-02
 2.002027466E-02 1.984766707E-02 2.065316557E-02 4.293444278E-02 4.330905092E-02
 4.246181975E-02 4.282049377E-02 4.197359126E-02 4.235803783E-02 4.147298875E-02
 4.186627615E-02 4.097637897E-02 4.137440014E-02 4.341204442E-02 4.047282431E-02
 4.087040610E-02 3.997576305E-02 4.037433192E-02 3.986989628E-02 3.947296889E-02
 -3.746082493E-02 -3.664053783E-02 -2.616841175E-02 -2.542180011E-02 -3.353159240E-02
 -3.272666202E-02 -2.970245928E-02 -2.902498271E-02 -5.666185510E-03 -3.948785177E-03
 -2.273252292E-02 -2.206144399E-02 -6.120216088E-03 -1.313005587E-02 -1.372226658E-02
 -1.102085085E-02 -1.048976694E-02 -7.980581925E-03 -8.510307882E-03 -1.956593023E-02
 -1.889440067E-02 -1.653029596E-02 -1.593741438E-02 3.229784578E-02 3.220246093E-02
 3.274725483E-02 3.265775649E-02 3.320677811E-02 3.310961880E-02 3.366470639E-02
 3.357354494E-02 3.413270011E-02 3.403378096E-02 3.184700841E-02 3.450603762E-02
 3.459879486E-02 3.497424328E-02 3.507482689E-02 3.545434749E-02 3.554859163E-02
 3.592996722E-02 3.603207771E-02 3.641725877E-02 3.651284375E-02 3.689954015E-02
 3.700300047E-02 3.739313970E-02 3.748987752E-02 3.788109506E-02 3.798567463E-02
 3.837986292E-02 3.847751027E-02 3.887222851E-02 3.897763429E-02 3.937471858E-02
 -3.500477680E-03 -1.491492979E-03 -1.883640608E-03 2.290094077E-05 4.163529660E-04
 1.856920182E-03 2.205476556E-03 3.605644003E-03 3.887719195E-03 5.237462123E-03
 5.469654350E-03 6.710332566E-03 7.002414816E-03 8.159704512E-03 8.427837504E-03
 9.495701614E-03 9.775939097E-03 1.078969347E-02 1.103562612E-02 1.198508314E-02
 1.223765426E-02 1.315533751E-02 1.338102314E-02 1.425416834E-02 1.448675336E-02
 1.532858825E-02 1.553280018E-02 1.632207710E-02 1.652862050E-02 1.727950458E-02
 1.745810544E-02 1.816305010E-02 1.834782194E-02 1.903016038E-02 1.919587311E-02
 -5.252632297E-02 -5.333546958E-02 -5.627080175E-02 -5.718010264E-02 -6.002225009E-02
 -6.089636673E-02 -6.366735966E-02 -6.444582962E-02 -6.777494885E-02 -6.698178874E-02
 -7.015367501E-02 -7.086999394E-02 -7.323192222E-02 -7.390209327E-02 -7.619068523E-02
 -7.691774726E-02 -7.908667933E-02 -7.973894921E-02 -8.183268868E-02 -8.250217321E-02
 -8.453112566E-02 -1.302361330E-01 6.621077226E-02 6.653084470E-02 6.817555759E-02
 6.786245676E-02 6.950583705E-02 6.924538579E-02 7.034740159E-02 7.052425897E-02
 6.461731423E-02 6.419262485E-02 6.238529699E-02 6.184089627E-02 5.986258876E-02
 5.918658588E-02 5.700851774E-02 5.629546890E-02 5.393127331E-02 5.325732091E-02
 5.090324911E-02 5.016842756E-02 4.775331173E-02 4.702099652E-02 4.437657791E-02
 6.106754580E-02 6.097819875E-02 6.052992927E-02 6.062437344E-02 6.009367770E-02
 6.017904540E-02 6.152577135E-02 6.142849405E-02 6.197866261E-02 6.188756088E-02
 6.291278773E-02 6.281933773E-02 6.244729079E-02 6.234796375E-02 6.329900638E-02
 6.340390619E-02 5.975329947E-02 6.379937278E-02 6.390056594E-02 6.431039899E-02
 6.442218612E-02 6.483243807E-02 6.493660864E-02 6.535168813E-02 6.546383393E-02
 6.587710079E-02 6.598214179E-02 6.640586903E-02 6.652047951E-02 6.694482505E-02
 7.019597996E-02 7.009353745E-02 6.960561453E-02 6.970548743E-02 7.065239423E-02
 7.056087145E-02 7.108283336E-02 7.099356093E-02 7.171964310E-02 7.178430707E-02
 7.146092519E-02 7.138661346E-02 6.705017009E-02 6.758015951E-02 6.748690885E-02
 6.812898669E-02 6.802265383E-02 6.908989205E-02 6.920089547E-02 6.866665143E-02
 6.856264942E-02 4.389092999E-02 4.351455031E-02 4.435368430E-02 4.400151539E-02
 4.482722628E-02 4.445351232E-02 4.530844638E-02 4.493049657E-02 4.625454214E-02
 4.588096379E-02 4.578083828E-02 4.540259001E-02 4.341204442E-02 4.634656754E-02
 -1.244166451E-01 -1.259628289E-01 -1.244354964E-01 -1.270651169E-01 -1.260553548E-01
 -1.279490416E-01 -1.272030462E-01 -1.280717173E-01 -1.286026052E-01 -1.287212990E-01
 -1.291227082E-01 -1.242861097E-01 5.892859578E-02 5.884437791E-02 5.932982053E-02
 5.924936064E-02 5.966386752E-02 5.853115983E-02 5.845545469E-02 5.815368803E-02
 5.807402571E-02 5.777592302E-02 5.770288252E-02 5.741091569E-02 5.733296575E-02
 5.704302396E-02 5.697212296E-02 5.668806267E-02 5.661245946E-02 5.633004620E-02
 5.626069632E-02 5.598369609E-02 5.590982382E-02 5.563532132E-02 5.556781469E-02
 5.530025969E-02 5.522928207E-02 5.496491151E-02 4.671687641E-02 4.717924422E-02
 4.681467764E-02 4.762950968E-02 4.726898793E-02 4.807895441E-02 4.772471042E-02
 4.816616009E-02 4.851595521E-02 4.895155457E-02 4.860828449E-02 4.979566160E-02
 4.946382282E-02 4.903598780E-02 4.937453912E-02 4.987723557E-02 -4.095212873E-02
 -3.924343889E-02 -4.472213892E-02 -4.619312395E-02 -4.997141689E-02 -5.129163903E-02
 -5.511187569E-02 -5.629416992E-02 -6.017340740E-02 -6.158300011E-02 -6.554546117E-02
 -6.712133181E-02 -7.120880022E-02 -7.281318468E-02 -7.693898371E-02 -7.859806714E-02
 -8.268291367E-02 -8.428004690E-02 -8.836948707E-02 -8.977456684E-02 -9.386089510E-02
 -9.534670032E-02 -9.941823966E-02 -1.007997796E-01 -1.047498454E-01 -1.061619030E-01
 -1.097469051E-01 -1.109775609E-01 -1.142134663E-01 -1.151945447E-01 -1.181495766E-01
 -1.191379295E-01 -1.210780724E-01 -1.220461132E-01 -1.223333170E-01 -3.559349839E-02
 -3.388326155E-02 -3.026741050E-02 -2.865824577E-02 -2.503246178E-02 -2.366804185E-02
 -2.017759839E-02 -1.881725235E-02 -1.555924310E-02 -1.414046910E-02 -1.118814205E-02
 -9.755817195E-03 -7.018053582E-03 -5.696367351E-03 -2.916121377E-03 -1.629731648E-03
 1.436254935E-03 2.693498649E-03 5.931865241E-03 7.088709335E-03 1.039594912E-02
 1.138677053E-02 1.480035520E-02 1.584430632E-02 1.921987376E-02 2.029794113E-02
 2.363904072E-02 2.458789296E-02 2.785455219E-02 2.885252656E-02 3.198302239E-02
 3.302025782E-02 3.603063184E-02 3.694599585E-02 3.984820195E-02 4.078092647E-02
 4.360146561E-02 7.114203809E-02 7.127724498E-02 7.170304112E-02 7.177595481E-02
 7.202033584E-02 7.206377549E-02 7.216378248E-02 7.217291775E-02 7.215571065E-02
 7.213521476E-02 7.202023499E-02 7.197796261E-02 -1.295027664E-01 -1.295767866E-01
 -1.292148955E-01 -1.300726001E-01 -1.302361330E-01 -1.301828840E-01 -1.299269690E-01
 -1.298145895E-01 -1.298658090E-01 5.424216097E-02 5.397827532E-02 5.108714541E-02
 5.100412292E-02 5.430745366E-02 5.390722925E-02 5.363839505E-02 5.357121555E-02
 5.322453993E-02 5.329819110E-02 5.287522799E-02 5.294509683E-02 5.251410131E-02
 5.259078826E-02 5.222296594E-02 5.215020752E-02 5.177412075E-02 5.185395737E-02
 5.139533969E-02 5.147105292E-02 5.068908247E-02 5.061041912E-02 5.029032356E-02
 5.020414544E-02 5.490010884E-02 5.456986016E-02 5.463957801E-02
 3.723031935E-01 3.702880325E-01 3.730748481E-01 3.759489179E-01 3.767513668E-01
 3.696718233E-01 3.681528775E-01 3.675473283E-01 3.659181232E-01 3.805063645E-01
 3.796267403E-01 3.838608919E-01 3.655044690E-01 3.645030454E-01 3.632639581E-01
 3.639062512E-01 3.630661384E-01 3.624168684E-01 3.621258244E-01 3.615810555E-01
 3.613542943E-01 3.611412351E-01 3.611266386E-01 3.612157649E-01 3.612268651E-01
 3.612117952E-01 3.613863101E-01 3.620376590E-01 3.623156678E-01 3.632276165E-01
 3.640993580E-01 3.628808406E-01 3.644876051E-01 3.660834899E-01 3.681560224E-01
 3.701202340E-01 3.665777282E-01 3.676650524E-01 4.827091374E-01 4.795680651E-01
 4.989826569E-01 4.955240960E-01 5.129921423E-01 5.170239154E-01 7.616846237E-01
 7.403551512E-01 7.670746962E-01 7.863960363E-01 7.911267391E-01 8.096195903E-01
 8.142020473E-01 8.310050656E-01 8.350667036E-01 8.511862026E-01 8.552848867E-01
 8.700615447E-01 8.738154284E-01 9.048372678E-01 8.920704168E-01 8.884776576E-01
 9.080986593E-01 9.350152064E-01 9.247219315E-01 9.215934103E-01 9.378728433E-01
 9.615182412E-01 9.520713075E-01 9.494294186E-01 9.639545395E-01 9.817165663E-01
 9.734305161E-01 9.714495851E-01 9.835562818E-01 9.913854482E-01 9.929872879E-01
 3.707721232E-01 3.726317558E-01 3.735159743E-01 3.759188229E-01 3.769081567E-01
 3.795394094E-01 3.806842767E-01 3.839313569E-01 3.851217439E-01 3.882514204E-01
 3.894944355E-01 3.932341183E-01 3.947275328E-01 3.993120991E-01 4.008980409E-01
 4.054285689E-01 4.071206654E-01 4.124941845E-01 4.141251842E-01 4.193513282E-01
 4.204745575E-01 4.273251816E-01 4.275629707E-01 4.285780802E-01 4.343497496E-01
 4.401920658E-01 4.352704249E-01 4.404053461E-01 4.404398385E-01 4.447996519E-01
 4.451016704E-01 4.482886446E-01 4.487265599E-01 4.509578730E-01 4.513691980E-01
 4.532160556E-01 4.535960326E-01 4.557629693E-01 4.558809685E-01 4.554229498E-01
 4.550693262E-01 4.583428410E-01 4.586628616E-01 4.574973450E-01 4.561167462E-01
 4.567010689E-01 9.970929739E-01 1.004104071E+00 9.982719561E-01 1.010166063E+00
 1.007913023E+00 1.007395697E+00 1.005178609E+00 1.010581458E+00 1.010393827E+00
 1.009602324E+00 1.009204128E+00 1.010263065E+00 -5.458339439E-01 -5.947050154E-01
 -4.697535877E-01 -5.272761869E-01 -3.976357691E-01 -4.547897125E-01 -3.245933852E-01
 -3.819534789E-01 -2.521928169E-01 -3.102535209E-01 -6.070438719E-01 -1.811720571E-01
 -2.371918781E-01 -1.110477816E-01 -1.671692559E-01 -9.659719271E-02 -4.301931063E-02
 5.316601585E-01 5.356827504E-01 5.936373889E-01 5.983172671E-01 5.513384984E-01
 5.558396220E-01 5.727142439E-01 5.765962674E-01 7.571581510E-01 7.739345912E-01
 6.160064061E-01 6.206370526E-01 7.530671749E-01 6.881517668E-01 6.831490629E-01
 7.061061363E-01 7.106874410E-01 7.345815915E-01 7.293464582E-01 6.372823160E-01
 6.422124694E-01 6.600698181E-01 6.647919179E-01 7.061770668E-01 7.124279634E-01