TITLE     = "Surface mesh and solution"
VARIABLES = "x"
"y"
"z"
"cfx"
"Cp"
DATASETAUXDATA alpha_deg="  0.0000000E+00"
DATASETAUXDATA beta_deg="  0.0000000E+00"
DATASETAUXDATA bref="  0.7500000"
DATASETAUXDATA cref="   1.000000"
DATASETAUXDATA itranflg="           0"
DATASETAUXDATA ivisc="           2"
DATASETAUXDATA mach="  0.2000000"
DATASETAUXDATA reue_mil="   4.600000"
DATASETAUXDATA sref="  0.7500000"
DATASETAUXDATA tinf_r="   521.0000"
DATASETAUXDATA xmc="  0.0000000E+00"
DATASETAUXDATA ymc="  0.0000000E+00"
DATASETAUXDATA zmc="  0.0000000E+00"
ZONE T="Slice: Y=-0.035"
STRANDID=0, SOLUTIONTIME=0
Nodes=1349, Elements=1349, ZONETYPE=FELineSeg
DATAPACKING=POINT
DT=(DOUBLE DOUBLE DOUBLE DOUBLE DOUBLE )
-0.246375 -0.035000 0.042110 0.000993	-0.392987
-0.246346 -0.035000 0.042394 0.001253	-0.444004
-0.246340 -0.035000 0.042456 0.001312	-0.454742
-0.246339 -0.035000 0.042464 0.001318	-0.456141
-0.246337 -0.035000 0.042479 0.001335	-0.459808
-0.246298 -0.035000 0.042796 0.001599	-0.525650
-0.246296 -0.035000 0.042810 0.001611	-0.528585
-0.246255 -0.035000 0.043087 0.001879	-0.593392
-0.246252 -0.035000 0.043106 0.001894	-0.597134
-0.246250 -0.035000 0.043120 0.001906	-0.599457
-0.246202 -0.035000 0.043412 0.002220	-0.640928
-0.246190 -0.035000 0.043475 0.002269	-0.652682
-0.246159 -0.035000 0.043643 0.002415	-0.685378
-0.246118 -0.035000 0.043845 0.002617	-0.721639
-0.246100 -0.035000 0.043938 0.002716	-0.739195
-0.246086 -0.035000 0.043999 0.002762	-0.749135
-0.246029 -0.035000 0.044253 0.003013	-0.798888
-0.246008 -0.035000 0.044342 0.003140	-0.816618
-0.245938 -0.035000 0.044622 0.003389	-0.869257
-0.245937 -0.035000 0.044626 0.003393	-0.870014
-0.245937 -0.035000 0.044629 0.003395	-0.870434
-0.245935 -0.035000 0.044635 0.003403	-0.871479
-0.245851 -0.035000 0.044943 0.003740	-0.920847
-0.245801 -0.035000 0.045115 0.003891	-0.944405
-0.245773 -0.035000 0.045211 0.003968	-0.958324
-0.245717 -0.035000 0.045392 0.004098	-0.998616
-0.245700 -0.035000 0.045447 0.004136	-1.011933
-0.245697 -0.035000 0.045453 0.004144	-1.013781
-0.245695 -0.035000 0.045460 0.004150	-1.015066
-0.245671 -0.035000 0.045536 0.004261	-1.028291
-0.245626 -0.035000 0.045671 0.004451	-1.053487
-0.245617 -0.035000 0.045699 0.004497	-1.057472
-0.245559 -0.035000 0.045869 0.004737	-1.084212
-0.245498 -0.035000 0.046038 0.004795	-1.121498
-0.245488 -0.035000 0.046068 0.004815	-1.126880
-0.245478 -0.035000 0.046094 0.004840	-1.131870
-0.245385 -0.035000 0.046343 0.005159	-1.166328
-0.245381 -0.035000 0.046352 0.005176	-1.167372
-0.245345 -0.035000 0.046442 0.005282	-1.183083
-0.245265 -0.035000 0.046643 0.005549	-1.219072
-0.245261 -0.035000 0.046655 0.005538	-1.220553
-0.245250 -0.035000 0.046680 0.005585	-1.225486
-0.245180 -0.035000 0.046848 0.005781	-1.261689
-0.245153 -0.035000 0.046911 0.005869	-1.274092
-0.245081 -0.035000 0.047076 0.005867	-1.301689
-0.245061 -0.035000 0.047123 0.005856	-1.308490
-0.244932 -0.035000 0.047404 0.006129	-1.346242
-0.244926 -0.035000 0.047417 0.006142	-1.348098
-0.244925 -0.035000 0.047419 0.006145	-1.348449
-0.244924 -0.035000 0.047422 0.006147	-1.348735
-0.244776 -0.035000 0.047727 0.006459	-1.397064
-0.244742 -0.035000 0.047796 0.006550	-1.401626
-0.244626 -0.035000 0.048024 0.006751	-1.434360
-0.244582 -0.035000 0.048107 0.006816	-1.455594
-0.244542 -0.035000 0.048183 0.006883	-1.467502
-0.244429 -0.035000 0.048392 0.007109	-1.496510
-0.244374 -0.035000 0.048490 0.007135	-1.511349
-0.244269 -0.035000 0.048674 0.007230	-1.535795
-0.244230 -0.035000 0.048743 0.007258	-1.545346
-0.244215 -0.035000 0.048769 0.007303	-1.550922
-0.244182 -0.035000 0.048825 0.007312	-1.555276
-0.244099 -0.035000 0.048965 0.007499	-1.570110
-0.244057 -0.035000 0.049033 0.007506	-1.579128
-0.243920 -0.035000 0.049256 0.008062	-1.599803
-0.243915 -0.035000 0.049265 0.008080	-1.600587
-0.243844 -0.035000 0.049377 0.008076	-1.625686
-0.243807 -0.035000 0.049435 0.008138	-1.636651
-0.243723 -0.035000 0.049564 0.008272	-1.652229
-0.243689 -0.035000 0.049617 0.008296	-1.657913
-0.243660 -0.035000 0.049659 0.008325	-1.663486
-0.243575 -0.035000 0.049786 0.008456	-1.674666
-0.243546 -0.035000 0.049830 0.008486	-1.678759
-0.243520 -0.035000 0.049868 0.008448	-1.682901
-0.243424 -0.035000 0.050008 0.008363	-1.692336
-0.243362 -0.035000 0.050097 0.008531	-1.705446
-0.243252 -0.035000 0.050251 0.008554	-1.723213
-0.243180 -0.035000 0.050351 0.008559	-1.730887
-0.243039 -0.035000 0.050541 0.008672	-1.751447
-0.243038 -0.035000 0.050543 0.008673	-1.751599
-0.243034 -0.035000 0.050548 0.008679	-1.751852
-0.242872 -0.035000 0.050763 0.008938	-1.762984
-0.242853 -0.035000 0.050787 0.008941	-1.765293
-0.242692 -0.035000 0.050993 0.009012	-1.786363
-0.242653 -0.035000 0.051043 0.009010	-1.790897
-0.242527 -0.035000 0.051199 0.009106	-1.807037
-0.242476 -0.035000 0.051263 0.009165	-1.813459
-0.242446 -0.035000 0.051299 0.009191	-1.814137
-0.242273 -0.035000 0.051507 0.009422	-1.826313
-0.242206 -0.035000 0.051586 0.009417	-1.838743
-0.242087 -0.035000 0.051725 0.009416	-1.845257
-0.241956 -0.035000 0.051875 0.009574	-1.858061
-0.241924 -0.035000 0.051911 0.009652	-1.859525
-0.241762 -0.035000 0.052092 0.009672	-1.870434
-0.241758 -0.035000 0.052096 0.009667	-1.870658
-0.241752 -0.035000 0.052103 0.009661	-1.871331
-0.241563 -0.035000 0.052309 0.009705	-1.881869
-0.241482 -0.035000 0.052395 0.009786	-1.889730
-0.241345 -0.035000 0.052540 0.009902	-1.888657
-0.241269 -0.035000 0.052620 0.009966	-1.887740
-0.241114 -0.035000 0.052778 0.009957	-1.898014
-0.241052 -0.035000 0.052842 0.010006	-1.909324
-0.240971 -0.035000 0.052923 0.010249	-1.923218
-0.240866 -0.035000 0.053027 0.010295	-1.927047
-0.240838 -0.035000 0.053056 0.010224	-1.926267
-0.240654 -0.035000 0.053235 0.010482	-1.922925
-0.240632 -0.035000 0.053256 0.010458	-1.922449
-0.240576 -0.035000 0.053310 0.010427	-1.927992
-0.240433 -0.035000 0.053445 0.010310	-1.939203
-0.240395 -0.035000 0.053481 0.010299	-1.942354
-0.240295 -0.035000 0.053574 0.010292	-1.941890
-0.240175 -0.035000 0.053686 0.010293	-1.941558
-0.240062 -0.035000 0.053788 0.010420	-1.937147
-0.239979 -0.035000 0.053864 0.010520	-1.932618
-0.239888 -0.035000 0.053945 0.010436	-1.934863
-0.239818 -0.035000 0.054007 0.010377	-1.936368
-0.239769 -0.035000 0.054050 0.010427	-1.939004
-0.239565 -0.035000 0.054228 0.010620	-1.941707
-0.239476 -0.035000 0.054305 0.010641	-1.940591
-0.239333 -0.035000 0.054426 0.010668	-1.946808
-0.239232 -0.035000 0.054511 0.010646	-1.950756
-0.239104 -0.035000 0.054618 0.010551	-1.950551
-0.238957 -0.035000 0.054738 0.010374	-1.947583
-0.238884 -0.035000 0.054799 0.010401	-1.944679
-0.238734 -0.035000 0.054919 0.010595	-1.942884
-0.238647 -0.035000 0.054989 0.010555	-1.944851
-0.238518 -0.035000 0.055091 0.010446	-1.947766
-0.238329 -0.035000 0.055238 0.010327	-1.945018
-0.238215 -0.035000 0.055326 0.010329	-1.945107
-0.237988 -0.035000 0.055499 0.010413	-1.944677
-0.237921 -0.035000 0.055549 0.010426	-1.943095
-0.237706 -0.035000 0.055709 0.010436	-1.939272
-0.237521 -0.035000 0.055844 0.010345	-1.942027
-0.237443 -0.035000 0.055901 0.010265	-1.941096
-0.237328 -0.035000 0.055983 0.010360	-1.940008
-0.237144 -0.035000 0.056114 0.010452	-1.935045
-0.237045 -0.035000 0.056184 0.010556	-1.934439
-0.236779 -0.035000 0.056369 0.010526	-1.926124
-0.236755 -0.035000 0.056386 0.010517	-1.925244
-0.236735 -0.035000 0.056400 0.010513	-1.925016
-0.236475 -0.035000 0.056577 0.010666	-1.921708
-0.236253 -0.035000 0.056725 0.010583	-1.924382
-0.236188 -0.035000 0.056768 0.010547	-1.924038
-0.236159 -0.035000 0.056788 0.010540	-1.924175
-0.235999 -0.035000 0.056892 0.010554	-1.922318
-0.235820 -0.035000 0.057008 0.010538	-1.918350
-0.235727 -0.035000 0.057068 0.010482	-1.916296
-0.235512 -0.035000 0.057205 0.010326	-1.907749
-0.235247 -0.035000 0.057371 0.010449	-1.904196
-0.235212 -0.035000 0.057393 0.010473	-1.903349
-0.235202 -0.035000 0.057399 0.010471	-1.903264
-0.234957 -0.035000 0.057550 0.010487	-1.899270
-0.234777 -0.035000 0.057659 0.010684	-1.894019
-0.234705 -0.035000 0.057702 0.010657	-1.893241
-0.234530 -0.035000 0.057806 0.010407	-1.886789
-0.234253 -0.035000 0.057970 0.010248	-1.879455
-0.234250 -0.035000 0.057971 0.010247	-1.879356
-0.234245 -0.035000 0.057974 0.010250	-1.879236
-0.233931 -0.035000 0.058156 0.010294	-1.875886
-0.233872 -0.035000 0.058189 0.010251	-1.875822
-0.233610 -0.035000 0.058338 0.010153	-1.878812
-0.233503 -0.035000 0.058397 0.010189	-1.869748
-0.233324 -0.035000 0.058497 0.010118	-1.865276
-0.233199 -0.035000 0.058565 0.010457	-1.864669
-0.232957 -0.035000 0.058697 0.010951	-1.854509
-0.232861 -0.035000 0.058749 0.010875	-1.849974
-0.232530 -0.035000 0.058925 0.010420	-1.847165
-0.232485 -0.035000 0.058949 0.010346	-1.846316
-0.232476 -0.035000 0.058954 0.010337	-1.846250
-0.232366 -0.035000 0.059011 0.010322	-1.841700
-0.231774 -0.035000 0.059317 0.010235	-1.816197
-0.231713 -0.035000 0.059348 0.010206	-1.815273
-0.231659 -0.035000 0.059376 0.010182	-1.813199
-0.231540 -0.035000 0.059434 0.010195	-1.808985
-0.231193 -0.035000 0.059608 0.010370	-1.803094
-0.231014 -0.035000 0.059695 0.010319	-1.795578
-0.230761 -0.035000 0.059818 0.010361	-1.793699
-0.230456 -0.035000 0.059964 0.010105	-1.785091
-0.229984 -0.035000 0.060186 0.009801	-1.774998
-0.229838 -0.035000 0.060254 0.009717	-1.770010
-0.229205 -0.035000 0.060542 0.009753	-1.753818
-0.229198 -0.035000 0.060545 0.009755	-1.753620
-0.229070 -0.035000 0.060602 0.009818	-1.751908
-0.228536 -0.035000 0.060837 0.010099	-1.744031
-0.228521 -0.035000 0.060843 0.010092	-1.743613
-0.228506 -0.035000 0.060850 0.010088	-1.743397
-0.227958 -0.035000 0.061085 0.010015	-1.726443
-0.227739 -0.035000 0.061177 0.010081	-1.723439
-0.227353 -0.035000 0.061338 0.010149	-1.713306
-0.227020 -0.035000 0.061474 0.010123	-1.703273
-0.226731 -0.035000 0.061590 0.010111	-1.692510
-0.226444 -0.035000 0.061705 0.009956	-1.685518
-0.226103 -0.035000 0.061839 0.009838	-1.679833
-0.225953 -0.035000 0.061898 0.009721	-1.676659
-0.225723 -0.035000 0.061987 0.009633	-1.672985
-0.225385 -0.035000 0.062116 0.009564	-1.664009
-0.225190 -0.035000 0.062189 0.009488	-1.659138
-0.224881 -0.035000 0.062305 0.009435	-1.648752
-0.224703 -0.035000 0.062371 0.009456	-1.646416
-0.224318 -0.035000 0.062512 0.009327	-1.642609
-0.224086 -0.035000 0.062595 0.009269	-1.637458
-0.223697 -0.035000 0.062734 0.009245	-1.625739
-0.223548 -0.035000 0.062787 0.009137	-1.623238
-0.223047 -0.035000 0.062961 0.009277	-1.604490
-0.222965 -0.035000 0.062989 0.009303	-1.601035
-0.222517 -0.035000 0.063143 0.009220	-1.593221
-0.222269 -0.035000 0.063226 0.009211	-1.590606
-0.221946 -0.035000 0.063334 0.009092	-1.582385
-0.221367 -0.035000 0.063524 0.009200	-1.569370
-0.221201 -0.035000 0.063578 0.009203	-1.564955
-0.221052 -0.035000 0.063625 0.009092	-1.562798
-0.220351 -0.035000 0.063847 0.008773	-1.549405
-0.220166 -0.035000 0.063905 0.008871	-1.545419
-0.219537 -0.035000 0.064098 0.008785	-1.531177
-0.219343 -0.035000 0.064156 0.008735	-1.526964
-0.218735 -0.035000 0.064337 0.008766	-1.522875
-0.218717 -0.035000 0.064343 0.008766	-1.522852
-0.218677 -0.035000 0.064354 0.008759	-1.522061
-0.218029 -0.035000 0.064542 0.008632	-1.504067
-0.217679 -0.035000 0.064642 0.008570	-1.499421
-0.217263 -0.035000 0.064760 0.008475	-1.488530
-0.217003 -0.035000 0.064832 0.008373	-1.483224
-0.216552 -0.035000 0.064957 0.008316	-1.473846
-0.216214 -0.035000 0.065048 0.008350	-1.466866
-0.215815 -0.035000 0.065156 0.008456	-1.456366
-0.215457 -0.035000 0.065251 0.008378	-1.453565
-0.214974 -0.035000 0.065377 0.008433	-1.447021
-0.214280 -0.035000 0.065554 0.008652	-1.437439
-0.214214 -0.035000 0.065571 0.008666	-1.436480
-0.214187 -0.035000 0.065578 0.008673	-1.436073
-0.213332 -0.035000 0.065790 0.008529	-1.421365
-0.213313 -0.035000 0.065795 0.008517	-1.420925
-0.213249 -0.035000 0.065810 0.008479	-1.420063
-0.212606 -0.035000 0.065966 0.008066	-1.407331
-0.212257 -0.035000 0.066049 0.008016	-1.403246
-0.211761 -0.035000 0.066165 0.008138	-1.394627
-0.211238 -0.035000 0.066286 0.008243	-1.386113
-0.210911 -0.035000 0.066361 0.008374	-1.379323
-0.210194 -0.035000 0.066521 0.008382	-1.366232
-0.209477 -0.035000 0.066678 0.008251	-1.362200
-0.209150 -0.035000 0.066748 0.008176	-1.358120
-0.208702 -0.035000 0.066842 0.008029	-1.351755
-0.208122 -0.035000 0.066964 0.007713	-1.340634
-0.207722 -0.035000 0.067046 0.007570	-1.334982
-0.207089 -0.035000 0.067175 0.007426	-1.324610
-0.206685 -0.035000 0.067255 0.007627	-1.321339
-0.206171 -0.035000 0.067356 0.007764	-1.317768
-0.205290 -0.035000 0.067526 0.007920	-1.301770
-0.204802 -0.035000 0.067618 0.008149	-1.291238
-0.204317 -0.035000 0.067708 0.007857	-1.283759
-0.203754 -0.035000 0.067811 0.007453	-1.275395
-0.203088 -0.035000 0.067930 0.007460	-1.269597
-0.202566 -0.035000 0.068021 0.007387	-1.264125
-0.202092 -0.035000 0.068103 0.007367	-1.258236
-0.201444 -0.035000 0.068214 0.007598	-1.250494
-0.200529 -0.035000 0.068366 0.007542	-1.241185
-0.200299 -0.035000 0.068403 0.007522	-1.237518
-0.199721 -0.035000 0.068495 0.007407	-1.234263
-0.199068 -0.035000 0.068599 0.007278	-1.229464
-0.198743 -0.035000 0.068649 0.007324	-1.225717
-0.198027 -0.035000 0.068758 0.007219	-1.212904
-0.197377 -0.035000 0.068856 0.007212	-1.201240
-0.196610 -0.035000 0.068967 0.007359	-1.192338
-0.196018 -0.035000 0.069053 0.007457	-1.186066
-0.195537 -0.035000 0.069120 0.007392	-1.181362
-0.194701 -0.035000 0.069236 0.007238	-1.173712
-0.194464 -0.035000 0.069269 0.007168	-1.172084
-0.193075 -0.035000 0.069451 0.006898	-1.161931
-0.192823 -0.035000 0.069484 0.006916	-1.159819
-0.191943 -0.035000 0.069594 0.006835	-1.151631
-0.191581 -0.035000 0.069640 0.006843	-1.147560
-0.190421 -0.035000 0.069781 0.006887	-1.132176
-0.190021 -0.035000 0.069828 0.006847	-1.128402
-0.189372 -0.035000 0.069902 0.006902	-1.123159
-0.188741 -0.035000 0.069975 0.006936	-1.117228
-0.188110 -0.035000 0.070045 0.007045	-1.115468
-0.187529 -0.035000 0.070108 0.007146	-1.112419
-0.186887 -0.035000 0.070175 0.007088	-1.108851
-0.186098 -0.035000 0.070258 0.007025	-1.101125
-0.185366 -0.035000 0.070330 0.006826	-1.094614
-0.184510 -0.035000 0.070416 0.006695	-1.084976
-0.183836 -0.035000 0.070480 0.006676	-1.080041
-0.182875 -0.035000 0.070571 0.006717	-1.072701
-0.181913 -0.035000 0.070658 0.006437	-1.063891
-0.181279 -0.035000 0.070714 0.006430	-1.058565
-0.180205 -0.035000 0.070806 0.006347	-1.051003
-0.179486 -0.035000 0.070866 0.006386	-1.045943
-0.177874 -0.035000 0.070993 0.006590	-1.032567
-0.177547 -0.035000 0.071019 0.006628	-1.029691
-0.177236 -0.035000 0.071042 0.006614	-1.027299
-0.176803 -0.035000 0.071073 0.006569	-1.024823
-0.175397 -0.035000 0.071174 0.006339	-1.014441
-0.174541 -0.035000 0.071231 0.006302	-1.008112
-0.173711 -0.035000 0.071286 0.006380	-1.002683
-0.172261 -0.035000 0.071377 0.006140	-0.994360
-0.171929 -0.035000 0.071398 0.006110	-0.992707
-0.171773 -0.035000 0.071407 0.006101	-0.991975
-0.169959 -0.035000 0.071511 0.006147	-0.982057
-0.169360 -0.035000 0.071543 0.006148	-0.977976
-0.167761 -0.035000 0.071626 0.005977	-0.968563
-0.167224 -0.035000 0.071651 0.005976	-0.965174
-0.165836 -0.035000 0.071716 0.006140	-0.959395
-0.164278 -0.035000 0.071780 0.005925	-0.951397
-0.163864 -0.035000 0.071797 0.005908	-0.947676
-0.162498 -0.035000 0.071848 0.006026	-0.936258
-0.161781 -0.035000 0.071875 0.006094	-0.929869
-0.161536 -0.035000 0.071883 0.006053	-0.928667
-0.159492 -0.035000 0.071950 0.006098	-0.914513
-0.157698 -0.035000 0.072001 0.005993	-0.908686
-0.157135 -0.035000 0.072017 0.005969	-0.905707
-0.156229 -0.035000 0.072038 0.006051	-0.900571
-0.154677 -0.035000 0.072074 0.005734	-0.891186
-0.153438 -0.035000 0.072096 0.005759	-0.884955
-0.152477 -0.035000 0.072113 0.005595	-0.878966
-0.151069 -0.035000 0.072131 0.005761	-0.874496
-0.149793 -0.035000 0.072148 0.005836	-0.868789
-0.147571 -0.035000 0.072168 0.005640	-0.858098
-0.147418 -0.035000 0.072169 0.005620	-0.857290
-0.147379 -0.035000 0.072169 0.005621	-0.857141
-0.144922 -0.035000 0.072180 0.005679	-0.846458
-0.144300 -0.035000 0.072179 0.005629	-0.843627
-0.142370 -0.035000 0.072179 0.005416	-0.836008
-0.140436 -0.035000 0.072168 0.005409	-0.827362
-0.139716 -0.035000 0.072164 0.005376	-0.824651
-0.139287 -0.035000 0.072160 0.005374	-0.822389
-0.136880 -0.035000 0.072136 0.005149	-0.809763
-0.135372 -0.035000 0.072116 0.005065	-0.803145
-0.133873 -0.035000 0.072093 0.005010	-0.796731
-0.131629 -0.035000 0.072052 0.005086	-0.785318
-0.131105 -0.035000 0.072043 0.005086	-0.782599
-0.127812 -0.035000 0.071966 0.005141	-0.772230
-0.127707 -0.035000 0.071964 0.005144	-0.771871
-0.127637 -0.035000 0.071962 0.005143	-0.771733
-0.127536 -0.035000 0.071959 0.005144	-0.771592
-0.125059 -0.035000 0.071889 0.005235	-0.767224
-0.122641 -0.035000 0.071812 0.005445	-0.756893
-0.122389 -0.035000 0.071804 0.005462	-0.755819
-0.122322 -0.035000 0.071802 0.005460	-0.755523
-0.122250 -0.035000 0.071800 0.005462	-0.755307
-0.119502 -0.035000 0.071702 0.005157	-0.744516
-0.116697 -0.035000 0.071590 0.005016	-0.735396
-0.116091 -0.035000 0.071566 0.004965	-0.733179
-0.115782 -0.035000 0.071553 0.004986	-0.732043
-0.113706 -0.035000 0.071462 0.004925	-0.724964
-0.112293 -0.035000 0.071399 0.004870	-0.719654
-0.112106 -0.035000 0.071390 0.004869	-0.719010
-0.108925 -0.035000 0.071237 0.004806	-0.702900
-0.108279 -0.035000 0.071204 0.004799	-0.700078
-0.105622 -0.035000 0.071066 0.004899	-0.688853
-0.103659 -0.035000 0.070957 0.004822	-0.684680
-0.102509 -0.035000 0.070893 0.004728	-0.682621
-0.101618 -0.035000 0.070839 0.004720	-0.681613
-0.099125 -0.035000 0.070689 0.004911	-0.676465
-0.097038 -0.035000 0.070554 0.004657	-0.672453
-0.096474 -0.035000 0.070517 0.004645	-0.671088
-0.095545 -0.035000 0.070455 0.004662	-0.668957
-0.093740 -0.035000 0.070332 0.004613	-0.665032
-0.090788 -0.035000 0.070123 0.004480	-0.654178
-0.090070 -0.035000 0.070071 0.004463	-0.650900
-0.088576 -0.035000 0.069960 0.004426	-0.644848
-0.086735 -0.035000 0.069823 0.004354	-0.637635
-0.084844 -0.035000 0.069677 0.004318	-0.631482
-0.083485 -0.035000 0.069573 0.004287	-0.626785
-0.083044 -0.035000 0.069538 0.004281	-0.625547
-0.082506 -0.035000 0.069495 0.004343	-0.624059
-0.080069 -0.035000 0.069299 0.004518	-0.617149
-0.077563 -0.035000 0.069091 0.004592	-0.610613
-0.077504 -0.035000 0.069086 0.004588	-0.610509
-0.076925 -0.035000 0.069036 0.004559	-0.609669
-0.074883 -0.035000 0.068860 0.004435	-0.606672
-0.074559 -0.035000 0.068831 0.004417	-0.605916
-0.072720 -0.035000 0.068667 0.004261	-0.601913
-0.072036 -0.035000 0.068605 0.004236	-0.600407
-0.070068 -0.035000 0.068424 0.004244	-0.595509
-0.069661 -0.035000 0.068387 0.004241	-0.594414
-0.069413 -0.035000 0.068364 0.004254	-0.593721
-0.067344 -0.035000 0.068169 0.004211	-0.587870
-0.065945 -0.035000 0.068035 0.004235	-0.584685
-0.064917 -0.035000 0.067936 0.004209	-0.581534
-0.063618 -0.035000 0.067808 0.004191	-0.577134
-0.062493 -0.035000 0.067698 0.004112	-0.572215
-0.061321 -0.035000 0.067581 0.004019	-0.567894
-0.059641 -0.035000 0.067413 0.004039	-0.562231
-0.057748 -0.035000 0.067221 0.004054	-0.556724
-0.056241 -0.035000 0.067067 0.003985	-0.552498
-0.053645 -0.035000 0.066797 0.003953	-0.546665
-0.053213 -0.035000 0.066751 0.003933	-0.545756
-0.053054 -0.035000 0.066735 0.003936	-0.545468
-0.052723 -0.035000 0.066699 0.003942	-0.544892
-0.050205 -0.035000 0.066430 0.004049	-0.540241
-0.048809 -0.035000 0.066278 0.004115	-0.537097
-0.047014 -0.035000 0.066079 0.004062	-0.533393
-0.045588 -0.035000 0.065920 0.003960	-0.530814
-0.043919 -0.035000 0.065730 0.003916	-0.528825
-0.042532 -0.035000 0.065569 0.003897	-0.526793
-0.041317 -0.035000 0.065429 0.003850	-0.522942
-0.039301 -0.035000 0.065192 0.003900	-0.518556
-0.038429 -0.035000 0.065090 0.003858	-0.516494
-0.037051 -0.035000 0.064925 0.003898	-0.512928
-0.035331 -0.035000 0.064719 0.003921	-0.508314
-0.033770 -0.035000 0.064530 0.003881	-0.503567
-0.032587 -0.035000 0.064385 0.003804	-0.500460
-0.029775 -0.035000 0.064038 0.003554	-0.493230
-0.029690 -0.035000 0.064027 0.003552	-0.493071
-0.026725 -0.035000 0.063654 0.003561	-0.486873
-0.025083 -0.035000 0.063445 0.003586	-0.482990
-0.023499 -0.035000 0.063243 0.003578	-0.479269
-0.021303 -0.035000 0.062959 0.003640	-0.473072
-0.020569 -0.035000 0.062864 0.003636	-0.471041
-0.019925 -0.035000 0.062779 0.003629	-0.468910
-0.017613 -0.035000 0.062476 0.003577	-0.462029
-0.016306 -0.035000 0.062301 0.003497	-0.459147
-0.015078 -0.035000 0.062138 0.003456	-0.456987
-0.012410 -0.035000 0.061778 0.003508	-0.453430
-0.012351 -0.035000 0.061770 0.003510	-0.453339
-0.009658 -0.035000 0.061401 0.003552	-0.448857
-0.008870 -0.035000 0.061292 0.003560	-0.447747
-0.005773 -0.035000 0.060858 0.003559	-0.442700
-0.005699 -0.035000 0.060848 0.003559	-0.442535
-0.005529 -0.035000 0.060824 0.003554	-0.442145
-0.002785 -0.035000 0.060433 0.003515	-0.435526
-0.001981 -0.035000 0.060319 0.003489	-0.433530
-0.001223 -0.035000 0.060209 0.003452	-0.431800
0.000990 -0.035000 0.059890 0.003386	-0.426790
0.003349 -0.035000 0.059546 0.003416	-0.422277
0.003710 -0.035000 0.059493 0.003422	-0.421446
0.006032 -0.035000 0.059151 0.003495	-0.416419
0.006332 -0.035000 0.059106 0.003475	-0.415827
0.008722 -0.035000 0.058750 0.003308	-0.410662
0.009529 -0.035000 0.058629 0.003302	-0.408997
0.011439 -0.035000 0.058341 0.003272	-0.405140
0.012781 -0.035000 0.058137 0.003293	-0.402757
0.014231 -0.035000 0.057916 0.003295	-0.399308
0.015954 -0.035000 0.057652 0.003292	-0.394618
0.017602 -0.035000 0.057398 0.003258	-0.390300
0.019580 -0.035000 0.057091 0.003154	-0.385738
0.022794 -0.035000 0.056588 0.003136	-0.378756
0.022954 -0.035000 0.056563 0.003137	-0.378460
0.023202 -0.035000 0.056524 0.003151	-0.377777
0.026270 -0.035000 0.056039 0.003252	-0.370491
0.029020 -0.035000 0.055599 0.003219	-0.364661
0.029374 -0.035000 0.055543 0.003202	-0.363934
0.032421 -0.035000 0.055050 0.003127	-0.359218
0.032670 -0.035000 0.055010 0.003128	-0.358833
0.033217 -0.035000 0.054921 0.003132	-0.357910
0.035794 -0.035000 0.054499 0.003145	-0.353461
0.038261 -0.035000 0.054091 0.003037	-0.349298
0.038930 -0.035000 0.053981 0.003008	-0.348421
0.039328 -0.035000 0.053914 0.003020	-0.347583
0.040145 -0.035000 0.053778 0.003008	-0.346112
0.042287 -0.035000 0.053418 0.002958	-0.342233
0.043770 -0.035000 0.053167 0.002933	-0.339803
0.046693 -0.035000 0.052670 0.002934	-0.333417
0.047083 -0.035000 0.052603 0.002923	-0.332545
0.048088 -0.035000 0.052431 0.002895	-0.330401
0.050463 -0.035000 0.052023 0.002828	-0.325438
0.051771 -0.035000 0.051797 0.002851	-0.322712
0.053645 -0.035000 0.051472 0.002883	-0.318973
0.056589 -0.035000 0.050958 0.002858	-0.311898
0.056771 -0.035000 0.050926 0.002855	-0.311463
0.060009 -0.035000 0.050356 0.002739	-0.305028
0.060111 -0.035000 0.050338 0.002738	-0.304829
0.060214 -0.035000 0.050320 0.002736	-0.304622
0.063318 -0.035000 0.049768 0.002713	-0.298520
0.064580 -0.035000 0.049542 0.002757	-0.295919
0.066298 -0.035000 0.049235 0.002804	-0.292617
0.067914 -0.035000 0.048944 0.002763	-0.289902
0.069363 -0.035000 0.048682 0.002750	-0.286820
0.071878 -0.035000 0.048225 0.002720	-0.281835
0.073155 -0.035000 0.047992 0.002688	-0.279254
0.075163 -0.035000 0.047624 0.002635	-0.274978
0.076893 -0.035000 0.047306 0.002599	-0.271468
0.077988 -0.035000 0.047104 0.002617	-0.269353
0.079919 -0.035000 0.046747 0.002682	-0.265522
0.081931 -0.035000 0.046373 0.002663	-0.261475
0.082900 -0.035000 0.046192 0.002639	-0.259656
0.084785 -0.035000 0.045840 0.002615	-0.255990
0.086458 -0.035000 0.045526 0.002610	-0.252340
0.087700 -0.035000 0.045293 0.002609	-0.249836
0.089690 -0.035000 0.044917 0.002585	-0.246118
0.091212 -0.035000 0.044628 0.002551	-0.243528
0.092201 -0.035000 0.044440 0.002527	-0.242027
0.093023 -0.035000 0.044283 0.002544	-0.240967
0.095286 -0.035000 0.043850 0.002594	-0.238004
0.097144 -0.035000 0.043492 0.002589	-0.234598
0.098295 -0.035000 0.043270 0.002581	-0.232371
0.101306 -0.035000 0.042685 0.002525	-0.227261
0.101587 -0.035000 0.042631 0.002522	-0.226842
0.105347 -0.035000 0.041892 0.002428	-0.221864
0.105922 -0.035000 0.041779 0.002411	-0.221015
0.107057 -0.035000 0.041554 0.002404	-0.218916
0.110033 -0.035000 0.040964 0.002366	-0.213131
0.112185 -0.035000 0.040535 0.002381	-0.208701
0.114151 -0.035000 0.040143 0.002407	-0.204622
0.116088 -0.035000 0.039754 0.002382	-0.200536
0.119393 -0.035000 0.039088 0.002315	-0.194018
0.119697 -0.035000 0.039026 0.002310	-0.193519
0.120013 -0.035000 0.038962 0.002310	-0.192960
0.122730 -0.035000 0.038411 0.002279	-0.188430
0.123078 -0.035000 0.038340 0.002279	-0.187681
0.125159 -0.035000 0.037917 0.002287	-0.183983
0.125796 -0.035000 0.037786 0.002283	-0.182641
0.127430 -0.035000 0.037452 0.002287	-0.179571
0.129239 -0.035000 0.037081 0.002253	-0.175480
0.129569 -0.035000 0.037014 0.002246	-0.174667
0.130028 -0.035000 0.036919 0.002238	-0.173749
0.132265 -0.035000 0.036458 0.002214	-0.169194
0.134072 -0.035000 0.036084 0.002193	-0.165902
0.135419 -0.035000 0.035806 0.002182	-0.163359
0.136772 -0.035000 0.035524 0.002191	-0.160773
0.138647 -0.035000 0.035134 0.002182	-0.157114
0.141265 -0.035000 0.034588 0.002157	-0.151762
0.141434 -0.035000 0.034552 0.002154	-0.151427
0.141552 -0.035000 0.034527 0.002153	-0.151199
0.144228 -0.035000 0.033966 0.002059	-0.146474
0.145129 -0.035000 0.033777 0.002044	-0.145069
0.148443 -0.035000 0.033077 0.002050	-0.138839
0.148856 -0.035000 0.032990 0.002055	-0.138102
0.149233 -0.035000 0.032910 0.002056	-0.137370
0.152574 -0.035000 0.032202 0.001964	-0.131221
0.153007 -0.035000 0.032109 0.001957	-0.130550
0.155785 -0.035000 0.031517 0.001954	-0.126013
0.156438 -0.035000 0.031377 0.001955	-0.124960
0.156557 -0.035000 0.031352 0.001956	-0.124738
0.159643 -0.035000 0.030688 0.001936	-0.119153
0.160842 -0.035000 0.030431 0.001929	-0.116987
0.160913 -0.035000 0.030415 0.001929	-0.116865
0.164918 -0.035000 0.029548 0.001912	-0.110169
0.166566 -0.035000 0.029189 0.001889	-0.107474
0.168258 -0.035000 0.028820 0.001861	-0.105093
0.171813 -0.035000 0.028041 0.001837	-0.098548
0.172198 -0.035000 0.027956 0.001835	-0.097789
0.172398 -0.035000 0.027912 0.001833	-0.097413
0.174724 -0.035000 0.027398 0.001841	-0.092954
0.176109 -0.035000 0.027093 0.001845	-0.090302
0.176365 -0.035000 0.027036 0.001844	-0.089837
0.179987 -0.035000 0.026231 0.001817	-0.083206
0.184149 -0.035000 0.025302 0.001802	-0.075052
0.184398 -0.035000 0.025246 0.001801	-0.074595
0.184851 -0.035000 0.025144 0.001793	-0.073784
0.189319 -0.035000 0.024139 0.001734	-0.065714
0.192848 -0.035000 0.023340 0.001721	-0.059540
0.194442 -0.035000 0.022980 0.001696	-0.056631
0.199414 -0.035000 0.021847 0.001597	-0.048541
0.199538 -0.035000 0.021818 0.001595	-0.048333
0.199577 -0.035000 0.021809 0.001595	-0.048266
0.199627 -0.035000 0.021798 0.001594	-0.048187
0.203077 -0.035000 0.021007 0.001564	-0.042450
0.204774 -0.035000 0.020616 0.001544	-0.039482
0.207005 -0.035000 0.020102 0.001515	-0.035501
0.207522 -0.035000 0.019983 0.001508	-0.034570
0.208227 -0.035000 0.019821 0.001499	-0.033352
0.212514 -0.035000 0.018827 0.001468	-0.025142
0.216422 -0.035000 0.017919 0.001429	-0.019180
0.216948 -0.035000 0.017797 0.001420	-0.018397
0.217081 -0.035000 0.017765 0.001420	-0.018234
0.220237 -0.035000 0.017026 0.001410	-0.013068
0.221752 -0.035000 0.016671 0.001365	-0.010817
0.222839 -0.035000 0.016417 0.001333	-0.009253
0.223872 -0.035000 0.016175 0.001299	-0.007872
0.226006 -0.035000 0.015670 0.001316	-0.005236
0.227929 -0.035000 0.015219 0.001319	-0.002182
0.229500 -0.035000 0.014846 0.001306	-0.000089
0.232368 -0.035000 0.014168 0.001209	0.003267
0.233678 -0.035000 0.013856 0.001173	0.005182
0.236725 -0.035000 0.013131 0.001164	0.009630
0.240638 -0.035000 0.012198 0.001095	0.015887
0.241314 -0.035000 0.012036 0.001085	0.016956
0.247060 -0.035000 0.010657 0.001024	0.025232
0.248528 -0.035000 0.010302 0.001010	0.027466
0.252145 -0.035000 0.009430 0.000992	0.033106
0.255841 -0.035000 0.008534 0.000922	0.038303
0.256829 -0.035000 0.008294 0.000910	0.039738
0.257503 -0.035000 0.008132 0.000906	0.040595
0.259917 -0.035000 0.007537 0.000875	0.043887
0.261363 -0.035000 0.007188 0.000796	0.045897
0.261707 -0.035000 0.007104 0.000788	0.046387
0.261953 -0.035000 0.007044 0.000789	0.046781
0.264943 -0.035000 0.006309 0.000827	0.050634
0.266619 -0.035000 0.005897 0.000766	0.052878
0.269732 -0.035000 0.005127 0.000717	0.057189
0.272095 -0.035000 0.004543 0.000686	0.060016
0.277454 -0.035000 0.003212 0.000591	0.066682
0.279124 -0.035000 0.002798 0.000569	0.068789
0.281433 -0.035000 0.002221 0.000528	0.071512
0.286502 -0.035000 0.000953 0.000469	0.077940
0.290906 -0.035000 -0.000153 0.000422	0.082967
0.292707 -0.035000 -0.000606 0.000397	0.085038
0.293649 -0.035000 -0.000842 0.000387	0.086068
0.297388 -0.035000 -0.001787 0.000295	0.090893
0.298798 -0.035000 -0.002143 0.000268	0.092637
0.300951 -0.035000 -0.002689 0.000221	0.095269
0.301998 -0.035000 -0.002955 0.000206	0.096584
0.304339 -0.035000 -0.003548 0.000187	0.099612
0.304741 -0.035000 -0.003651 0.000185	0.100103
0.305367 -0.035000 -0.003810 0.000174	0.100922
0.307447 -0.035000 -0.004340 0.000137	0.103498
0.308049 -0.035000 -0.004493 0.000132	0.104320
0.310553 -0.035000 -0.005132 0.000118	0.107809
0.311676 -0.035000 -0.005417 0.000103	0.109358
0.313455 -0.035000 -0.005871 0.000068	0.111457
0.315319 -0.035000 -0.006347 0.000029	0.113485
0.320881 -0.035000 -0.007769 -0.000082	0.119343
0.320904 -0.035000 -0.007774 -0.000082	0.119370
0.320930 -0.035000 -0.007781 -0.000082	0.119398
0.321275 -0.035000 -0.007870 -0.000085	0.119675
0.328288 -0.035000 -0.009674 -0.000141	0.125319
0.328952 -0.035000 -0.009846 -0.000145	0.125872
0.334755 -0.035000 -0.011348 -0.000196	0.131260
0.337194 -0.035000 -0.011983 -0.000203	0.133684
0.340236 -0.035000 -0.012774 -0.000211	0.136716
0.341128 -0.035000 -0.013006 -0.000214	0.137586
0.346041 -0.035000 -0.014290 -0.000232	0.141880
0.350913 -0.035000 -0.015568 -0.000265	0.145799
0.353549 -0.035000 -0.016260 -0.000278	0.147687