TITLE     = "Surface mesh and solution"
VARIABLES = "x"
"y"
"z"
"cfx"
"Cp"
DATASETAUXDATA alpha_deg="  0.0000000E+00"
DATASETAUXDATA beta_deg="  0.0000000E+00"
DATASETAUXDATA bref="  0.7500000"
DATASETAUXDATA cref="   1.000000"
DATASETAUXDATA itranflg="           0"
DATASETAUXDATA ivisc="           2"
DATASETAUXDATA mach="  0.2000000"
DATASETAUXDATA reue_mil="   4.600000"
DATASETAUXDATA sref="  0.7500000"
DATASETAUXDATA tinf_r="   521.0000"
DATASETAUXDATA xmc="  0.0000000E+00"
DATASETAUXDATA ymc="  0.0000000E+00"
DATASETAUXDATA zmc="  0.0000000E+00"
ZONE T="Slice: Y=-0.001"
STRANDID=0, SOLUTIONTIME=0
Nodes=819, Elements=819, ZONETYPE=FELineSeg
DATAPACKING=POINT
DT=(DOUBLE DOUBLE DOUBLE DOUBLE DOUBLE )
-0.246349 -0.001000 0.042353 0.001110	-0.503905
-0.246381 -0.001000 0.042040 0.000857	-0.443030
-0.246411 -0.001000 0.041589 0.000539	-0.404170
-0.246419 -0.001000 0.041473 0.000454	-0.389933
-0.246422 -0.001000 0.041414 0.000420	-0.378807
-0.246436 -0.001000 0.040968 0.000163	-0.322581
-0.246437 -0.001000 0.040897 0.000126	-0.314989
-0.246439 -0.001000 0.040605 -0.000027	-0.240911
-0.246438 -0.001000 0.040462 -0.000091	-0.213312
-0.246431 -0.001000 0.040182 -0.000251	-0.188193
-0.246429 -0.001000 0.040107 -0.000297	-0.171677
-0.246426 -0.001000 0.040024 -0.000341	-0.167274
-0.246405 -0.001000 0.039627 -0.000528	-0.111183
-0.246397 -0.001000 0.039505 -0.000591	-0.084404
-0.246346 -0.001000 0.038927 -0.000839	0.010462
-0.246345 -0.001000 0.038926 -0.000840	0.010669
-0.246345 -0.001000 0.038925 -0.000840	0.010804
-0.246276 -0.001000 0.038367 -0.001098	0.083616
-0.246209 -0.001000 0.037942 -0.001190	0.126241
-0.246182 -0.001000 0.037777 -0.001249	0.142630
-0.246145 -0.001000 0.037583 -0.001285	0.167580
-0.246071 -0.001000 0.037202 -0.001395	0.221296
-0.245976 -0.001000 0.036787 -0.001511	0.273216
-0.245943 -0.001000 0.036638 -0.001577	0.292047
-0.245923 -0.001000 0.036559 -0.001570	0.303194
-0.245775 -0.001000 0.036004 -0.001700	0.391802
-0.245758 -0.001000 0.035939 -0.001716	0.401964
-0.245756 -0.001000 0.035933 -0.001716	0.402620
-0.245573 -0.001000 0.035326 -0.001656	0.461593
-0.245553 -0.001000 0.035263 -0.001658	0.468978
-0.245347 -0.001000 0.034656 -0.001773	0.523407
-0.245325 -0.001000 0.034594 -0.001782	0.530059
-0.245064 -0.001000 0.033904 -0.001711	0.582530
-0.245063 -0.001000 0.033901 -0.001710	0.582677
-0.245062 -0.001000 0.033898 -0.001710	0.582936
-0.244809 -0.001000 0.033290 -0.001760	0.637596
-0.244559 -0.001000 0.032730 -0.001745	0.685533
-0.244555 -0.001000 0.032723 -0.001746	0.686086
-0.244546 -0.001000 0.032703 -0.001744	0.687352
-0.244307 -0.001000 0.032203 -0.001750	0.723054
-0.244204 -0.001000 0.031995 -0.001787	0.738491
-0.244019 -0.001000 0.031636 -0.001778	0.770475
-0.243880 -0.001000 0.031372 -0.001675	0.785144
-0.243651 -0.001000 0.030957 -0.001597	0.802248
-0.243568 -0.001000 0.030807 -0.001587	0.809528
-0.243483 -0.001000 0.030660 -0.001536	0.815004
-0.243163 -0.001000 0.030115 -0.001399	0.839036
-0.242891 -0.001000 0.029676 -0.001348	0.862735
-0.242716 -0.001000 0.029398 -0.001288	0.879019
-0.242331 -0.001000 0.028814 -0.001241	0.905687
-0.242217 -0.001000 0.028643 -0.001215	0.911217
-0.241701 -0.001000 0.027907 -0.001085	0.933613
-0.241638 -0.001000 0.027819 -0.001070	0.936298
-0.241553 -0.001000 0.027704 -0.001029	0.939126
-0.241073 -0.001000 0.027056 -0.000815	0.954574
-0.240743 -0.001000 0.026630 -0.000721	0.962681
-0.240589 -0.001000 0.026432 -0.000691	0.968126
-0.240186 -0.001000 0.025933 -0.000659	0.983919
-0.239835 -0.001000 0.025509 -0.000611	0.988324
-0.239398 -0.001000 0.024995 -0.000508	0.993908
-0.238889 -0.001000 0.024413 -0.000383	0.998412
-0.238268 -0.001000 0.023732 -0.000278	1.004844
-0.238032 -0.001000 0.023476 -0.000226	1.007685
-0.237702 -0.001000 0.023132 -0.000186	1.009462
-0.237182 -0.001000 0.022590 -0.000114	1.012197
-0.236819 -0.001000 0.022227 -0.000074	1.013633
-0.236398 -0.001000 0.021804 -0.000033	1.014518
-0.236059 -0.001000 0.021476 -0.000004	1.013192
-0.235634 -0.001000 0.021066 0.000042	1.011196
-0.235168 -0.001000 0.020630 0.000083	1.010737
-0.234764 -0.001000 0.020253 0.000127	1.010641
-0.233948 -0.001000 0.019517 0.000207	1.009517
-0.233504 -0.001000 0.019124 0.000245	1.008024
-0.232639 -0.001000 0.018376 0.000325	1.003926
-0.231511 -0.001000 0.017434 0.000446	0.999615
-0.231496 -0.001000 0.017422 0.000448	0.999546
-0.231469 -0.001000 0.017400 0.000450	0.999352
-0.230165 -0.001000 0.016351 0.000554	0.988975
-0.229642 -0.001000 0.015944 0.000574	0.985748
-0.228712 -0.001000 0.015226 0.000615	0.978333
-0.227785 -0.001000 0.014532 0.000686	0.971230
-0.227271 -0.001000 0.014152 0.000715	0.967607
-0.226234 -0.001000 0.013401 0.000753	0.959454
-0.225561 -0.001000 0.012923 0.000765	0.953021
-0.224738 -0.001000 0.012347 0.000793	0.946626
-0.223809 -0.001000 0.011711 0.000832	0.941124
-0.223140 -0.001000 0.011257 0.000864	0.936762
-0.222023 -0.001000 0.010516 0.000923	0.926223
-0.221798 -0.001000 0.010367 0.000931	0.923868
-0.221560 -0.001000 0.010214 0.000941	0.921298
-0.220451 -0.001000 0.009497 0.000956	0.908384
-0.219861 -0.001000 0.009126 0.000983	0.903554
-0.219067 -0.001000 0.008624 0.001019	0.898876
-0.218100 -0.001000 0.008028 0.001077	0.890605
-0.217473 -0.001000 0.007642 0.001101	0.886769
-0.216252 -0.001000 0.006910 0.001066	0.878496
-0.215683 -0.001000 0.006569 0.001029	0.874570
-0.215268 -0.001000 0.006325 0.001041	0.871562
-0.213881 -0.001000 0.005516 0.001081	0.860823
-0.212387 -0.001000 0.004666 0.001189	0.851147
-0.211824 -0.001000 0.004347 0.001198	0.847361
-0.209778 -0.001000 0.003214 0.001222	0.833867
-0.209708 -0.001000 0.003175 0.001225	0.833462
-0.209423 -0.001000 0.003022 0.001231	0.831588
-0.207660 -0.001000 0.002072 0.001236	0.820497
-0.206876 -0.001000 0.001659 0.001294	0.815634
-0.205497 -0.001000 0.000934 0.001333	0.807579
-0.203426 -0.001000 -0.000129 0.001337	0.794411
-0.203267 -0.001000 -0.000211 0.001336	0.793433
-0.203179 -0.001000 -0.000255 0.001334	0.792810
-0.201233 -0.001000 -0.001231 0.001355	0.780574
-0.200887 -0.001000 -0.001401 0.001386	0.779027
-0.199812 -0.001000 -0.001930 0.001424	0.774484
-0.198847 -0.001000 -0.002398 0.001455	0.769821
-0.198212 -0.001000 -0.002707 0.001445	0.767350
-0.197256 -0.001000 -0.003165 0.001473	0.763570
-0.196812 -0.001000 -0.003377 0.001475	0.761843
-0.196582 -0.001000 -0.003486 0.001477	0.760627
-0.194770 -0.001000 -0.004339 0.001426	0.749309
-0.193386 -0.001000 -0.004979 0.001452	0.742202
-0.192216 -0.001000 -0.005516 0.001483	0.737022
-0.189816 -0.001000 -0.006600 0.001568	0.725167
-0.189595 -0.001000 -0.006700 0.001575	0.724122
-0.189223 -0.001000 -0.006864 0.001585	0.722610
-0.187067 -0.001000 -0.007815 0.001613	0.714098
-0.186344 -0.001000 -0.008129 0.001647	0.711306
-0.184623 -0.001000 -0.008873 0.001676	0.704997
-0.183833 -0.001000 -0.009210 0.001694	0.702024
-0.182220 -0.001000 -0.009894 0.001748	0.694219
-0.181504 -0.001000 -0.010195 0.001755	0.690866
-0.179376 -0.001000 -0.011079 0.001760	0.683354
-0.179333 -0.001000 -0.011096 0.001759	0.683201
-0.179264 -0.001000 -0.011124 0.001761	0.682889
-0.176863 -0.001000 -0.012106 0.001800	0.672004
-0.175769 -0.001000 -0.012546 0.001806	0.667818
-0.174091 -0.001000 -0.013219 0.001684	0.660142
-0.172359 -0.001000 -0.013902 0.001757	0.656571
-0.171473 -0.001000 -0.014251 0.001784	0.655554
-0.170444 -0.001000 -0.014649 0.001863	0.652380
-0.168801 -0.001000 -0.015284 0.001811	0.647351
-0.166320 -0.001000 -0.016229 0.001894	0.637827
-0.165786 -0.001000 -0.016432 0.001887	0.635820
-0.164108 -0.001000 -0.017060 0.001865	0.630248
-0.162639 -0.001000 -0.017609 0.001837	0.625388
-0.162419 -0.001000 -0.017690 0.001841	0.624762
-0.159690 -0.001000 -0.018690 0.001911	0.616183
-0.158985 -0.001000 -0.018944 0.001935	0.614191
-0.156578 -0.001000 -0.019809 0.001907	0.609478
-0.155461 -0.001000 -0.020205 0.001888	0.606047
-0.153036 -0.001000 -0.021061 0.001902	0.598053
-0.152024 -0.001000 -0.021414 0.001898	0.595899
-0.149000 -0.001000 -0.022459 0.001935	0.589791
-0.148538 -0.001000 -0.022617 0.001937	0.588747
-0.145661 -0.001000 -0.023594 0.001916	0.581071
-0.145157 -0.001000 -0.023764 0.001937	0.580086
-0.142873 -0.001000 -0.024527 0.001936	0.576218
-0.141020 -0.001000 -0.025139 0.001993	0.572423
-0.139388 -0.001000 -0.025673 0.002019	0.569043
-0.137833 -0.001000 -0.026180 0.001998	0.566020
-0.136985 -0.001000 -0.026453 0.002003	0.563926
-0.133966 -0.001000 -0.027420 0.002005	0.554354
-0.133034 -0.001000 -0.027716 0.001990	0.551989
-0.129988 -0.001000 -0.028672 0.001974	0.544984
-0.129520 -0.001000 -0.028819 0.001975	0.543865
-0.128436 -0.001000 -0.029153 0.001994	0.542689
-0.125843 -0.001000 -0.029953 0.002056	0.540264
-0.123581 -0.001000 -0.030640 0.002030	0.538031
-0.122302 -0.001000 -0.031029 0.002026	0.536795
-0.121382 -0.001000 -0.031304 0.002056	0.535273
-0.118760 -0.001000 -0.032087 0.002160	0.530325
-0.117059 -0.001000 -0.032590 0.002191	0.526962
-0.114157 -0.001000 -0.033439 0.002188	0.520131
-0.113023 -0.001000 -0.033770 0.002171	0.517404
-0.110589 -0.001000 -0.034470 0.002119	0.513619
-0.109639 -0.001000 -0.034743 0.002044	0.512167
-0.108527 -0.001000 -0.035058 0.002052	0.510093
-0.106035 -0.001000 -0.035763 0.001986	0.505284
-0.105113 -0.001000 -0.036021 0.002013	0.503897
-0.101570 -0.001000 -0.037006 0.001979	0.499691
-0.100131 -0.001000 -0.037402 0.001961	0.498132
-0.096419 -0.001000 -0.038412 0.001949	0.495055
-0.095084 -0.001000 -0.038773 0.001975	0.493711
-0.092722 -0.001000 -0.039404 0.002101	0.490511
-0.090428 -0.001000 -0.040017 0.002168	0.486561
-0.088199 -0.001000 -0.040602 0.002247	0.483771
-0.086540 -0.001000 -0.041039 0.002209	0.481369
-0.086074 -0.001000 -0.041160 0.002218	0.480587
-0.082521 -0.001000 -0.042078 0.002281	0.475868
-0.081686 -0.001000 -0.042294 0.002271	0.474786
-0.081272 -0.001000 -0.042399 0.002263	0.474131
-0.077763 -0.001000 -0.043291 0.001994	0.469275
-0.074781 -0.001000 -0.044036 0.002037	0.463553
-0.073463 -0.001000 -0.044365 0.002007	0.461099
-0.071074 -0.001000 -0.044952 0.002046	0.459674
-0.068709 -0.001000 -0.045533 0.002028	0.457991
-0.067917 -0.001000 -0.045726 0.002024	0.457615
-0.063363 -0.001000 -0.046826 0.001961	0.454011
-0.062109 -0.001000 -0.047126 0.001946	0.452867
-0.058115 -0.001000 -0.048073 0.002030	0.448596
-0.057512 -0.001000 -0.048216 0.002027	0.447961
-0.053425 -0.001000 -0.049170 0.001973	0.443463
-0.051526 -0.001000 -0.049611 0.002057	0.441776
-0.048026 -0.001000 -0.050413 0.002099	0.439033
-0.045375 -0.001000 -0.051014 0.002045	0.437350
-0.043387 -0.001000 -0.051463 0.001980	0.436323
-0.042348 -0.001000 -0.051694 0.001989	0.435136
-0.037229 -0.001000 -0.052829 0.001939	0.429984
-0.034980 -0.001000 -0.053321 0.001958	0.428695
-0.031134 -0.001000 -0.054154 0.001864	0.425712
-0.028817 -0.001000 -0.054652 0.001805	0.423757
-0.024128 -0.001000 -0.055649 0.001919	0.419397
-0.023415 -0.001000 -0.055799 0.001921	0.418655
-0.022260 -0.001000 -0.056041 0.001935	0.417617
-0.018457 -0.001000 -0.056836 0.001884	0.414730
-0.013903 -0.001000 -0.057775 0.001835	0.413035
-0.013385 -0.001000 -0.057882 0.001833	0.412787
-0.012876 -0.001000 -0.057985 0.001840	0.412276
-0.007951 -0.001000 -0.058984 0.002010	0.407995
-0.002957 -0.001000 -0.059980 0.002003	0.404170
-0.002130 -0.001000 -0.060145 0.001991	0.403518
-0.002080 -0.001000 -0.060155 0.001992	0.403488
-0.001951 -0.001000 -0.060180 0.001996	0.403368
0.003868 -0.001000 -0.061320 0.001958	0.398410
0.008580 -0.001000 -0.062226 0.002000	0.396565
0.010227 -0.001000 -0.062540 0.001958	0.395972
0.015572 -0.001000 -0.063549 0.001854	0.393452
0.015931 -0.001000 -0.063617 0.001843	0.393293
0.015992 -0.001000 -0.063628 0.001843	0.393246
0.021115 -0.001000 -0.064581 0.001731	0.389507
0.025546 -0.001000 -0.065393 0.001752	0.387701
0.027122 -0.001000 -0.065682 0.001729	0.387211
0.029238 -0.001000 -0.066063 0.001760	0.385947
0.033479 -0.001000 -0.066828 0.001746	0.383917
0.036426 -0.001000 -0.067351 0.001795	0.382366
0.039577 -0.001000 -0.067910 0.001749	0.380425
0.045320 -0.001000 -0.068912 0.001682	0.376764
0.046410 -0.001000 -0.069102 0.001658	0.376064
0.046772 -0.001000 -0.069164 0.001674	0.375852
0.054527 -0.001000 -0.070489 0.001865	0.370908
0.056204 -0.001000 -0.070772 0.001811	0.370080
0.063426 -0.001000 -0.071974 0.001517	0.366102
0.065390 -0.001000 -0.072299 0.001484	0.364598
0.068274 -0.001000 -0.072767 0.001682	0.363807
0.074907 -0.001000 -0.073839 0.001948	0.362897
0.078819 -0.001000 -0.074462 0.001840	0.362925
0.083166 -0.001000 -0.075146 0.001781	0.361351
0.087901 -0.001000 -0.075885 0.001811	0.358552
0.090432 -0.001000 -0.076275 0.001787	0.357605
0.096982 -0.001000 -0.077278 0.001684	0.355121
0.101509 -0.001000 -0.077958 0.001731	0.353208
0.105107 -0.001000 -0.078499 0.001742	0.351809
0.108368 -0.001000 -0.078980 0.001814	0.350179
0.113539 -0.001000 -0.079741 0.001793	0.347818
0.119270 -0.001000 -0.080571 0.001626	0.346142
0.125469 -0.001000 -0.081456 0.001660	0.344655
0.129321 -0.001000 -0.082003 0.001681	0.343914
0.132916 -0.001000 -0.082505 0.001723	0.342674
0.138573 -0.001000 -0.083289 0.001610	0.340311
0.143483 -0.001000 -0.083962 0.001590	0.339366
0.149003 -0.001000 -0.084708 0.001513	0.339529
0.152731 -0.001000 -0.085208 0.001379	0.339608
0.162163 -0.001000 -0.086451 0.001401	0.338277
0.162644 -0.001000 -0.086514 0.001390	0.338138
0.163176 -0.001000 -0.086583 0.001391	0.337737
0.169954 -0.001000 -0.087458 0.001320	0.332821
0.176942 -0.001000 -0.088345 0.001521	0.330227
0.178753 -0.001000 -0.088573 0.001525	0.329500
0.185678 -0.001000 -0.089436 0.001467	0.327306
0.190898 -0.001000 -0.090076 0.001477	0.325760
0.194328 -0.001000 -0.090495 0.001397	0.325060
0.204302 -0.001000 -0.091693 0.001415	0.323882
0.204643 -0.001000 -0.091734 0.001417	0.323831
0.205188 -0.001000 -0.091798 0.001423	0.323664
0.214069 -0.001000 -0.092842 0.001475	0.321955
0.219051 -0.001000 -0.093421 0.001560	0.321243
0.225178 -0.001000 -0.094123 0.001617	0.320754
0.228957 -0.001000 -0.094554 0.001609	0.320582
0.237724 -0.001000 -0.095540 0.001563	0.319085
0.238930 -0.001000 -0.095675 0.001542	0.318874
0.240291 -0.001000 -0.095825 0.001544	0.318780
0.250357 -0.001000 -0.096934 0.001423	0.317763
0.252873 -0.001000 -0.097206 0.001410	0.317459
0.263800 -0.001000 -0.098379 0.001435	0.317662
0.264986 -0.001000 -0.098505 0.001449	0.317692
0.268968 -0.001000 -0.098920 0.001363	0.316627
0.275820 -0.001000 -0.099636 0.001201	0.315314
0.281611 -0.001000 -0.100227 0.001239	0.313078
0.286131 -0.001000 -0.100687 0.001318	0.311961
0.288291 -0.001000 -0.100903 0.001317	0.311557
0.296537 -0.001000 -0.101725 0.001437	0.310897
0.302590 -0.001000 -0.102317 0.001520	0.310331
0.308142 -0.001000 -0.102857 0.001566	0.309984
0.314549 -0.001000 -0.103472 0.001567	0.310064
0.324525 -0.001000 -0.104413 0.001255	0.308013
0.328114 -0.001000 -0.104750 0.001075	0.307288
0.334153 -0.001000 -0.105307 0.001139	0.307293
0.342624 -0.001000 -0.106087 0.001130	0.307266
0.352955 -0.001000 -0.107011 0.001214	0.308618
0.359545 -0.001000 -0.107604 0.001305	0.309415
0.362014 -0.001000 -0.107822 0.001266	0.309399
0.366919 -0.001000 -0.108246 0.001296	0.308563
0.378189 -0.001000 -0.109217 0.001403	0.306689
0.384875 -0.001000 -0.109778 0.001502	0.305718
0.397034 -0.001000 -0.110785 0.001440	0.305160
0.406196 -0.001000 -0.111525 0.001246	0.306002
0.416283 -0.001000 -0.112330 0.001100	0.306977
0.426003 -0.001000 -0.113083 0.001070	0.306446
0.432488 -0.001000 -0.113590 0.001026	0.306611
0.437934 -0.001000 -0.114005 0.001032	0.307252
0.449056 -0.001000 -0.114844 0.001017	0.308969
0.466372 -0.001000 -0.116109 0.000912	0.309949
0.468239 -0.001000 -0.116244 0.000903	0.309944
0.474579 -0.001000 -0.116687 0.000931	0.309722
0.489967 -0.001000 -0.117764 0.001005	0.309085
0.491553 -0.001000 -0.117872 0.000994	0.309167
0.507124 -0.001000 -0.118915 0.000956	0.311025
0.510715 -0.001000 -0.119151 0.000985	0.311344
0.524107 -0.001000 -0.120013 0.001022	0.312439
0.529572 -0.001000 -0.120359 0.000966	0.313176
0.545175 -0.001000 -0.121318 0.000961	0.316001
0.549433 -0.001000 -0.121576 0.000904	0.316698
0.555329 -0.001000 -0.121924 0.000879	0.318068
0.570629 -0.001000 -0.122816 0.000796	0.319863
0.574903 -0.001000 -0.123060 0.000869	0.319871
0.591400 -0.001000 -0.123973 0.001071	0.321998
0.592792 -0.001000 -0.124049 0.001062	0.322160
0.598450 -0.001000 -0.124347 0.001027	0.323052
0.609126 -0.001000 -0.124909 0.000942	0.324198
0.616914 -0.001000 -0.125300 0.000823	0.324767
0.624681 -0.001000 -0.125690 0.000711	0.324874
0.630845 -0.001000 -0.125984 0.000780	0.325924
0.643177 -0.001000 -0.126564 0.000876	0.327908
0.654521 -0.001000 -0.127074 0.000863	0.330044
0.666012 -0.001000 -0.127569 0.000885	0.333192
0.671296 -0.001000 -0.127792 0.000914	0.334555
0.689768 -0.001000 -0.128532 0.000809	0.338984
0.691333 -0.001000 -0.128594 0.000785	0.339360
0.693126 -0.001000 -0.128661 0.000774	0.339596
0.711633 -0.001000 -0.129340 0.000752	0.341704
0.714131 -0.001000 -0.129429 0.000760	0.341764
0.724049 -0.001000 -0.129767 0.000874	0.341518
0.727822 -0.001000 -0.129891 0.000866	0.341130
0.730452 -0.001000 -0.129977 0.000840	0.340545
0.733283 -0.001000 -0.130068 0.000884	0.339773
0.734322 -0.001000 -0.130102 0.000890	0.339467
0.734488 -0.001000 -0.130107 0.000894	0.339418
0.736394 -0.001000 -0.130167 0.000868	0.340156
0.736688 -0.001000 -0.130176 0.000864	0.340563
0.737486 -0.001000 -0.130201 0.000744	0.341756
0.737701 -0.001000 -0.130208 0.000691	0.341586
0.738088 -0.001000 -0.130220 0.000680	0.341218
0.738207 -0.001000 -0.130224 0.000644	0.335607
0.738345 -0.001000 -0.130228 0.000627	0.330486
0.738490 -0.001000 -0.130233 0.000580	0.316047
0.738498 -0.001000 -0.130233 0.000573	0.315891
0.738512 -0.001000 -0.130233 0.000514	0.315162
0.738606 -0.001000 -0.130236 0.000022	0.316874
0.738549 -0.001000 -0.130217 0.000068	0.321407
0.738461 -0.001000 -0.130189 0.000131	0.328586
0.738384 -0.001000 -0.130163 0.000109	0.329672
0.738284 -0.001000 -0.130130 0.000094	0.331126
0.738166 -0.001000 -0.130091 0.000086	0.330840
0.737744 -0.001000 -0.129953 0.000064	0.331056
0.737711 -0.001000 -0.129942 0.000063	0.331082
0.737670 -0.001000 -0.129928 0.000062	0.331179
0.737240 -0.001000 -0.129787 0.000045	0.330874
0.736688 -0.001000 -0.129605 0.000022	0.330471
0.736630 -0.001000 -0.129586 0.000021	0.330509
0.735818 -0.001000 -0.129319 0.000003	0.330312
0.734977 -0.001000 -0.129043 -0.000016	0.330084
0.734792 -0.001000 -0.128982 -0.000020	0.330017
0.732753 -0.001000 -0.128313 -0.000071	0.328943
0.731523 -0.001000 -0.127909 -0.000088	0.328371
0.728495 -0.001000 -0.126917 -0.000129	0.326439
0.727216 -0.001000 -0.126499 -0.000147	0.325616
0.724670 -0.001000 -0.125667 -0.000172	0.323518
0.720974 -0.001000 -0.124460 -0.000205	0.320443
0.715918 -0.001000 -0.122816 -0.000244	0.315502
0.711595 -0.001000 -0.121411 -0.000276	0.311266
0.699460 -0.001000 -0.117490 -0.000329	0.298289
0.698400 -0.001000 -0.117148 -0.000332	0.297190
0.697491 -0.001000 -0.116855 -0.000336	0.296211
0.689992 -0.001000 -0.114450 -0.000371	0.288112
0.685940 -0.001000 -0.113150 -0.000388	0.283749
0.685645 -0.001000 -0.113056 -0.000390	0.283435
0.676903 -0.001000 -0.110268 -0.000417	0.274104
0.672784 -0.001000 -0.108961 -0.000437	0.269874
0.667993 -0.001000 -0.107442 -0.000429	0.265083
0.659348 -0.001000 -0.104713 -0.000439	0.257090
0.657487 -0.001000 -0.104126 -0.000446	0.255460
0.653378 -0.001000 -0.102838 -0.000454	0.252151
0.647587 -0.001000 -0.101020 -0.000465	0.247533
0.646378 -0.001000 -0.100642 -0.000468	0.246582
0.639330 -0.001000 -0.098441 -0.000493	0.240767
0.635003 -0.001000 -0.097097 -0.000506	0.237331
0.631196 -0.001000 -0.095915 -0.000506	0.234386
0.626142 -0.001000 -0.094353 -0.000561	0.230956
0.623698 -0.001000 -0.093598 -0.000575	0.229317
0.622502 -0.001000 -0.093230 -0.000573	0.228611
0.616037 -0.001000 -0.091241 -0.000522	0.224986
0.608292 -0.001000 -0.088869 -0.000514	0.220426
0.607331 -0.001000 -0.088575 -0.000512	0.219876
0.606607 -0.001000 -0.088354 -0.000513	0.219497
0.598999 -0.001000 -0.086036 -0.000504	0.215144
0.596590 -0.001000 -0.085305 -0.000496	0.213846
0.589093 -0.001000 -0.083033 -0.000482	0.210257
0.584476 -0.001000 -0.081640 -0.000489	0.208243
0.577074 -0.001000 -0.079411 -0.000495	0.205002
0.569918 -0.001000 -0.077266 -0.000509	0.202056
0.565656 -0.001000 -0.075991 -0.000491	0.200371
0.556991 -0.001000 -0.073409 -0.000471	0.197778
0.552834 -0.001000 -0.072175 -0.000470	0.196583
0.544482 -0.001000 -0.069699 -0.000452	0.194246
0.531719 -0.001000 -0.065942 -0.000448	0.191012
0.531706 -0.001000 -0.065938 -0.000448	0.191008
0.531704 -0.001000 -0.065937 -0.000448	0.191008
0.531695 -0.001000 -0.065934 -0.000448	0.191005
0.523122 -0.001000 -0.063425 -0.000401	0.188696
0.514520 -0.001000 -0.060920 -0.000445	0.186375
0.512800 -0.001000 -0.060419 -0.000443	0.185911
0.511755 -0.001000 -0.060117 -0.000442	0.185684
0.500624 -0.001000 -0.056896 -0.000413	0.183266
0.494575 -0.001000 -0.055156 -0.000426	0.181856
0.486962 -0.001000 -0.052971 -0.000400	0.180529
0.480907 -0.001000 -0.051241 -0.000371	0.179559
0.471248 -0.001000 -0.048495 -0.000371	0.177307
0.468702 -0.001000 -0.047772 -0.000385	0.176757
0.463594 -0.001000 -0.046331 -0.000377	0.175961
0.456723 -0.001000 -0.044393 -0.000369	0.174825
0.448198 -0.001000 -0.042004 -0.000382	0.173508
0.441166 -0.001000 -0.040040 -0.000375	0.172468
0.432404 -0.001000 -0.037600 -0.000349	0.171293
0.421227 -0.001000 -0.034508 -0.000345	0.169611
0.416236 -0.001000 -0.033131 -0.000331	0.168978
0.405793 -0.001000 -0.030271 -0.000364	0.166384
0.404479 -0.001000 -0.029911 -0.000366	0.165964
0.403740 -0.001000 -0.029709 -0.000370	0.165769
0.398502 -0.001000 -0.028286 -0.000384	0.164396
0.391146 -0.001000 -0.026288 -0.000384	0.162467
0.388050 -0.001000 -0.025452 -0.000391	0.161503
0.378915 -0.001000 -0.022996 -0.000403	0.157787
0.376797 -0.001000 -0.022426 -0.000402	0.156959
0.376614 -0.001000 -0.022377 -0.000401	0.156869
0.376147 -0.001000 -0.022253 -0.000401	0.156617
0.365855 -0.001000 -0.019510 -0.000397	0.151183
0.357512 -0.001000 -0.017302 -0.000407	0.146108
0.353930 -0.001000 -0.016359 -0.000411	0.143796
0.344349 -0.001000 -0.013840 -0.000443	0.137525
0.333772 -0.001000 -0.011081 -0.000489	0.128819
0.330684 -0.001000 -0.010276 -0.000489	0.126113
0.320061 -0.001000 -0.007530 -0.000513	0.115617
0.319071 -0.001000 -0.007276 -0.000520	0.114602
0.310821 -0.001000 -0.005160 -0.000532	0.105303
0.306645 -0.001000 -0.004096 -0.000547	0.100463
0.302794 -0.001000 -0.003116 -0.000550	0.096097
0.296370 -0.001000 -0.001492 -0.000581	0.088666
0.292581 -0.001000 -0.000538 -0.000586	0.084243
0.284500 -0.001000 0.001484 -0.000582	0.074714
0.282233 -0.001000 0.002049 -0.000582	0.072012
0.272414 -0.001000 0.004478 -0.000684	0.059930
0.272123 -0.001000 0.004550 -0.000685	0.059593
0.261997 -0.001000 0.007031 -0.000668	0.047299
0.261918 -0.001000 0.007050 -0.000668	0.047192
0.252225 -0.001000 0.009402 -0.000645	0.033939
0.252163 -0.001000 0.009417 -0.000645	0.033857
0.245155 -0.001000 0.011105 -0.000659	0.024892
0.238799 -0.001000 0.012625 -0.000676	0.017414
0.236696 -0.001000 0.013129 -0.000673	0.014983
0.231368 -0.001000 0.014392 -0.000694	0.008859
0.228195 -0.001000 0.015145 -0.000696	0.005128
0.224575 -0.001000 0.015995 -0.000705	0.000760
0.219075 -0.001000 0.017288 -0.000680	-0.005973
0.216043 -0.001000 0.017994 -0.000680	-0.010258
0.209834 -0.001000 0.019437 -0.000680	-0.019433
0.205606 -0.001000 0.020412 -0.000660	-0.025984
0.199427 -0.001000 0.021830 -0.000645	-0.036192
0.193664 -0.001000 0.023138 -0.000599	-0.045013
0.188804 -0.001000 0.024239 -0.000532	-0.052714
0.179763 -0.001000 0.026255 -0.000304	-0.067924
0.176155 -0.001000 0.027062 -0.000204	-0.074015
0.174816 -0.001000 0.027358 -0.000151	-0.076444
0.164299 -0.001000 0.029661 0.000188	-0.098232
0.163114 -0.001000 0.029919 0.000224	-0.100666
0.149310 -0.001000 0.032881 0.000454	-0.131078
0.149151 -0.001000 0.032915 0.000455	-0.131443
0.148855 -0.001000 0.032978 0.000458	-0.132055
0.137814 -0.001000 0.035298 0.000473	-0.153082
0.128434 -0.001000 0.037235 0.000575	-0.166157
0.127292 -0.001000 0.037473 0.000595	-0.168441
0.126534 -0.001000 0.037629 0.000601	-0.169240
0.117960 -0.001000 0.039368 0.000706	-0.185005
0.117952 -0.001000 0.039370 0.000706	-0.185023
0.110437 -0.001000 0.040869 0.000985	-0.202376
0.107560 -0.001000 0.041442 0.001000	-0.207112
0.102945 -0.001000 0.042345 0.001006	-0.214260
0.098632 -0.001000 0.043189 0.001084	-0.223395
0.092537 -0.001000 0.044359 0.001193	-0.236231
0.089500 -0.001000 0.044944 0.001227	-0.242256
0.085874 -0.001000 0.045628 0.001344	-0.249343
0.080139 -0.001000 0.046702 0.001407	-0.259722
0.073635 -0.001000 0.047903 0.001481	-0.270167
0.071984 -0.001000 0.048202 0.001503	-0.273133
0.066475 -0.001000 0.049199 0.001594	-0.282395
0.061784 -0.001000 0.050035 0.001680	-0.291768
0.057724 -0.001000 0.050750 0.001776	-0.299986
0.054149 -0.001000 0.051376 0.001720	-0.307587
0.052137 -0.001000 0.051722 0.001721	-0.311514
0.047238 -0.001000 0.052566 0.001763	-0.321389
0.046193 -0.001000 0.052743 0.001801	-0.323768
0.040898 -0.001000 0.053637 0.001761	-0.334933
0.040555 -0.001000 0.053694 0.001757	-0.335651
0.034575 -0.001000 0.054687 0.001763	-0.347712
0.033314 -0.001000 0.054894 0.001806	-0.350235
0.029161 -0.001000 0.055569 0.002087	-0.359413
0.028048 -0.001000 0.055749 0.002123	-0.362056
0.024202 -0.001000 0.056363 0.002047	-0.370818
0.019722 -0.001000 0.057066 0.002050	-0.379588
0.018296 -0.001000 0.057289 0.002034	-0.382749
0.017595 -0.001000 0.057397 0.002036	-0.383970
0.012924 -0.001000 0.058113 0.002094	-0.392213
0.011405 -0.001000 0.058342 0.002134	-0.395797
0.008589 -0.001000 0.058765 0.002164	-0.401717
0.005190 -0.001000 0.059269 0.002100	-0.407915
0.003494 -0.001000 0.059517 0.002139	-0.411049
0.000348 -0.001000 0.059975 0.002264	-0.416766
-0.002082 -0.001000 0.060322 0.002427	-0.421483
-0.004564 -0.001000 0.060676 0.002378	-0.426473
-0.007383 -0.001000 0.061072 0.002293	-0.432710
-0.010035 -0.001000 0.061440 0.002356	-0.438980
-0.012428 -0.001000 0.061770 0.002316	-0.444307
-0.016227 -0.001000 0.062284 0.002486	-0.454371
-0.016864 -0.001000 0.062370 0.002485	-0.456140
-0.017664 -0.001000 0.062476 0.002485	-0.458191
-0.021503 -0.001000 0.062983 0.002365	-0.468703
-0.023821 -0.001000 0.063281 0.002407	-0.472484
-0.026186 -0.001000 0.063584 0.002452	-0.476542
-0.029189 -0.001000 0.063962 0.002601	-0.482013
-0.031771 -0.001000 0.064281 0.002789	-0.487372
-0.032872 -0.001000 0.064416 0.002837	-0.489917
-0.033690 -0.001000 0.064514 0.002841	-0.491645
-0.036934 -0.001000 0.064905 0.002670	-0.498056
-0.041373 -0.001000 0.065425 0.002880	-0.509474
-0.041836 -0.001000 0.065480 0.002877	-0.510655
-0.042585 -0.001000 0.065565 0.002904	-0.512403
-0.046416 -0.001000 0.066001 0.002849	-0.521840
-0.049814 -0.001000 0.066378 0.002905	-0.527651
-0.049831 -0.001000 0.066380 0.002905	-0.527703
-0.052887 -0.001000 0.066712 0.002847	-0.540173
-0.055779 -0.001000 0.067017 0.002930	-0.548516
-0.056818 -0.001000 0.067127 0.002896	-0.551589
-0.058930 -0.001000 0.067342 0.003044	-0.555085
-0.061072 -0.001000 0.067560 0.003120	-0.558915
-0.061465 -0.001000 0.067599 0.003237	-0.559809
-0.064322 -0.001000 0.067877 0.003427	-0.564621
-0.065805 -0.001000 0.068022 0.003493	-0.567020
-0.069573 -0.001000 0.068375 0.003020	-0.572270
-0.069578 -0.001000 0.068376 0.003020	-0.572283
-0.069593 -0.001000 0.068377 0.003020	-0.572328
-0.073319 -0.001000 0.068714 0.003178	-0.584042
-0.073962 -0.001000 0.068770 0.003232	-0.586132
-0.077314 -0.001000 0.069060 0.003355	-0.597492
-0.078610 -0.001000 0.069170 0.003325	-0.601731
-0.082551 -0.001000 0.069493 0.003473	-0.610477
-0.083145 -0.001000 0.069542 0.003454	-0.611762
-0.083561 -0.001000 0.069575 0.003467	-0.612875
-0.087154 -0.001000 0.069854 0.003328	-0.623328
-0.089058 -0.001000 0.069994 0.003439	-0.628680
-0.090804 -0.001000 0.070122 0.003542	-0.632258
-0.093620 -0.001000 0.070318 0.003912	-0.639922
-0.094358 -0.001000 0.070369 0.003874	-0.642108
-0.097076 -0.001000 0.070548 0.003412	-0.650593
-0.099234 -0.001000 0.070684 0.003526	-0.656360
-0.101440 -0.001000 0.070820 0.003559	-0.661178
-0.104211 -0.001000 0.070980 0.003729	-0.668324
-0.104767 -0.001000 0.071013 0.003750	-0.669756
-0.105496 -0.001000 0.071052 0.003764	-0.672620
-0.108299 -0.001000 0.071202 0.003628	-0.683589
-0.110353 -0.001000 0.071306 0.003554	-0.689343
-0.112876 -0.001000 0.071426 0.004137	-0.697367
-0.113711 -0.001000 0.071464 0.004151	-0.699942
-0.116656 -0.001000 0.071591 0.004124	-0.709675
-0.116908 -0.001000 0.071602 0.004102	-0.710548
-0.116937 -0.001000 0.071603 0.004103	-0.710612
-0.119903 -0.001000 0.071718 0.004175	-0.720071
-0.120000 -0.001000 0.071722 0.004177	-0.720377
-0.120003 -0.001000 0.071722 0.004177	-0.720387
-0.122666 -0.001000 0.071815 0.004199	-0.727025
-0.123505 -0.001000 0.071842 0.004343	-0.730054
-0.126375 -0.001000 0.071927 0.004453	-0.741202
-0.126453 -0.001000 0.071930 0.004447	-0.741481
-0.126523 -0.001000 0.071931 0.004450	-0.741762
-0.129635 -0.001000 0.072009 0.004491	-0.752100
-0.130667 -0.001000 0.072031 0.004471	-0.756193
-0.133186 -0.001000 0.072081 0.004208	-0.768760
-0.135167 -0.001000 0.072111 0.004038	-0.774365
-0.137102 -0.001000 0.072138 0.003890	-0.780112
-0.139208 -0.001000 0.072158 0.004206	-0.789202
-0.139987 -0.001000 0.072164 0.004220	-0.791835
-0.142038 -0.001000 0.072176 0.004353	-0.801802
-0.143807 -0.001000 0.072178 0.004600	-0.810811
-0.144928 -0.001000 0.072178 0.004634	-0.815020
-0.146933 -0.001000 0.072169 0.004996	-0.821053
-0.148189 -0.001000 0.072163 0.005086	-0.824267
-0.148995 -0.001000 0.072155 0.005313	-0.827096
-0.151598 -0.001000 0.072124 0.005747	-0.835333
-0.152410 -0.001000 0.072111 0.005591	-0.839549
-0.154092 -0.001000 0.072083 0.004980	-0.848649
-0.154635 -0.001000 0.072072 0.005042	-0.850939
-0.156766 -0.001000 0.072024 0.005041	-0.860575
-0.157502 -0.001000 0.072006 0.005145	-0.863920
-0.159079 -0.001000 0.071961 0.005605	-0.872829
-0.160112 -0.001000 0.071933 0.005744	-0.877640
-0.161565 -0.001000 0.071882 0.006044	-0.884034
-0.162497 -0.001000 0.071850 0.006071	-0.887716
-0.162812 -0.001000 0.071838 0.006029	-0.889161