TITLE     = "Surface mesh and solution"
VARIABLES = "x"
"y"
"z"
"cfx"
"Cp"
DATASETAUXDATA alpha_deg="  0.0000000E+00"
DATASETAUXDATA beta_deg="  0.0000000E+00"
DATASETAUXDATA bref="  0.7500000"
DATASETAUXDATA cref="   1.000000"
DATASETAUXDATA itranflg="           0"
DATASETAUXDATA ivisc="           2"
DATASETAUXDATA mach="  0.2000000"
DATASETAUXDATA reue_mil="   4.600000"
DATASETAUXDATA sref="  0.7500000"
DATASETAUXDATA tinf_r="   521.0000"
DATASETAUXDATA xmc="  0.0000000E+00"
DATASETAUXDATA ymc="  0.0000000E+00"
DATASETAUXDATA zmc="  0.0000000E+00"
ZONE T="Slice: Y=-0.001"
STRANDID=0, SOLUTIONTIME=0
Nodes=826, Elements=826, ZONETYPE=FELineSeg
DATAPACKING=POINT
DT=(DOUBLE DOUBLE DOUBLE DOUBLE DOUBLE )
-0.249049 -0.001000 0.021789 0.000421	0.581696
-0.249051 -0.001000 0.021753 0.000410	0.586225
-0.249085 -0.001000 0.021266 0.000240	0.633409
-0.249102 -0.001000 0.020832 0.000107	0.645448
-0.249103 -0.001000 0.020828 0.000106	0.645584
-0.249103 -0.001000 0.020825 0.000105	0.645769
-0.249107 -0.001000 0.020466 0.000007	0.672274
-0.249106 -0.001000 0.020301 -0.000031	0.673469
-0.249103 -0.001000 0.020084 -0.000076	0.688991
-0.249098 -0.001000 0.019899 -0.000121	0.705655
-0.249084 -0.001000 0.019610 -0.000189	0.732545
-0.249075 -0.001000 0.019419 -0.000229	0.743192
-0.249044 -0.001000 0.019037 -0.000322	0.761031
-0.249030 -0.001000 0.018862 -0.000358	0.768208
-0.249020 -0.001000 0.018780 -0.000371	0.772171
-0.248965 -0.001000 0.018308 -0.000421	0.794694
-0.248901 -0.001000 0.017883 -0.000468	0.814868
-0.248881 -0.001000 0.017747 -0.000479	0.821249
-0.248828 -0.001000 0.017463 -0.000494	0.830860
-0.248773 -0.001000 0.017171 -0.000522	0.846069
-0.248735 -0.001000 0.016999 -0.000529	0.854078
-0.248658 -0.001000 0.016650 -0.000563	0.878975
-0.248539 -0.001000 0.016182 -0.000584	0.917454
-0.248532 -0.001000 0.016153 -0.000585	0.919375
-0.248517 -0.001000 0.016101 -0.000587	0.920173
-0.248397 -0.001000 0.015679 -0.000591	0.923524
-0.248324 -0.001000 0.015447 -0.000563	0.931501
-0.248264 -0.001000 0.015257 -0.000539	0.936666
-0.248106 -0.001000 0.014793 -0.000545	0.949369
-0.248106 -0.001000 0.014792 -0.000545	0.949387
-0.248105 -0.001000 0.014790 -0.000545	0.949441
-0.247935 -0.001000 0.014329 -0.000488	0.960932
-0.247833 -0.001000 0.014073 -0.000462	0.964571
-0.247731 -0.001000 0.013820 -0.000449	0.969570
-0.247596 -0.001000 0.013507 -0.000417	0.974046
-0.247509 -0.001000 0.013306 -0.000394	0.976777
-0.247420 -0.001000 0.013113 -0.000352	0.979084
-0.247267 -0.001000 0.012784 -0.000282	0.982020
-0.247158 -0.001000 0.012562 -0.000243	0.985007
-0.246921 -0.001000 0.012097 -0.000188	0.991456
-0.246829 -0.001000 0.011920 -0.000166	0.992860
-0.246717 -0.001000 0.011718 -0.000137	0.993427
-0.246514 -0.001000 0.011349 -0.000082	0.993302
-0.246266 -0.001000 0.010926 -0.000017	0.994718
-0.246215 -0.001000 0.010838 -0.000002	0.994989
-0.246190 -0.001000 0.010797 0.000004	0.994949
-0.245940 -0.001000 0.010392 0.000074	0.993771
-0.245844 -0.001000 0.010241 0.000099	0.993581
-0.245678 -0.001000 0.009984 0.000145	0.993085
-0.245561 -0.001000 0.009807 0.000183	0.992846
-0.245338 -0.001000 0.009479 0.000245	0.990415
-0.245178 -0.001000 0.009250 0.000291	0.989117
-0.244983 -0.001000 0.008973 0.000359	0.987036
-0.244656 -0.001000 0.008529 0.000431	0.980825
-0.244592 -0.001000 0.008443 0.000445	0.979613
-0.244332 -0.001000 0.008106 0.000531	0.977070
-0.244127 -0.001000 0.007840 0.000599	0.974873
-0.244095 -0.001000 0.007801 0.000605	0.974567
-0.243649 -0.001000 0.007251 0.000660	0.966848
-0.243582 -0.001000 0.007170 0.000671	0.965160
-0.243087 -0.001000 0.006588 0.000799	0.956477
-0.243043 -0.001000 0.006537 0.000806	0.955658
-0.242521 -0.001000 0.005951 0.000884	0.945784
-0.242494 -0.001000 0.005921 0.000888	0.945357
-0.242148 -0.001000 0.005548 0.000937	0.937884
-0.241964 -0.001000 0.005349 0.000963	0.933916
-0.241933 -0.001000 0.005316 0.000968	0.933311
-0.241424 -0.001000 0.004789 0.001087	0.922574
-0.241286 -0.001000 0.004649 0.001130	0.919051
-0.240818 -0.001000 0.004182 0.001224	0.909396
-0.240550 -0.001000 0.003922 0.001222	0.905685
-0.240120 -0.001000 0.003511 0.001219	0.896783
-0.239867 -0.001000 0.003275 0.001253	0.889885
-0.239418 -0.001000 0.002863 0.001321	0.882754
-0.239146 -0.001000 0.002618 0.001387	0.878932
-0.238537 -0.001000 0.002081 0.001414	0.872152
-0.238524 -0.001000 0.002069 0.001416	0.871947
-0.238518 -0.001000 0.002064 0.001416	0.871821
-0.237861 -0.001000 0.001504 0.001466	0.853670
-0.237746 -0.001000 0.001407 0.001471	0.851002
-0.237122 -0.001000 0.000892 0.001581	0.838262
-0.236997 -0.001000 0.000790 0.001607	0.837140
-0.236338 -0.001000 0.000262 0.001603	0.828198
-0.236244 -0.001000 0.000188 0.001597	0.825767
-0.235493 -0.001000 -0.000394 0.001582	0.808411
-0.235470 -0.001000 -0.000412 0.001583	0.808069
-0.235366 -0.001000 -0.000491 0.001599	0.806353
-0.234738 -0.001000 -0.000965 0.001677	0.797020
-0.234380 -0.001000 -0.001228 0.001708	0.791144
-0.233958 -0.001000 -0.001538 0.001727	0.785454
-0.233725 -0.001000 -0.001705 0.001739	0.781507
-0.232997 -0.001000 -0.002223 0.001835	0.770512
-0.232797 -0.001000 -0.002363 0.001855	0.768231
-0.232024 -0.001000 -0.002896 0.001829	0.756246
-0.231924 -0.001000 -0.002964 0.001833	0.755049
-0.231811 -0.001000 -0.003040 0.001833	0.753015
-0.231141 -0.001000 -0.003491 0.001925	0.740525
-0.230436 -0.001000 -0.003953 0.001930	0.733693
-0.230351 -0.001000 -0.004010 0.001935	0.732668
-0.230168 -0.001000 -0.004126 0.001947	0.730633
-0.229508 -0.001000 -0.004551 0.001982	0.723800
-0.228870 -0.001000 -0.004953 0.001994	0.713184
-0.228671 -0.001000 -0.005077 0.001998	0.710392
-0.227740 -0.001000 -0.005650 0.002022	0.697191
-0.227709 -0.001000 -0.005669 0.002023	0.696768
-0.227706 -0.001000 -0.005671 0.002023	0.696743
-0.227695 -0.001000 -0.005677 0.002024	0.696637
-0.226617 -0.001000 -0.006324 0.002088	0.686181
-0.226022 -0.001000 -0.006673 0.002118	0.678603
-0.225411 -0.001000 -0.007029 0.002142	0.669471
-0.224711 -0.001000 -0.007429 0.002139	0.661390
-0.224505 -0.001000 -0.007546 0.002139	0.658751
-0.224218 -0.001000 -0.007707 0.002173	0.656137
-0.223611 -0.001000 -0.008047 0.002245	0.649695
-0.223048 -0.001000 -0.008356 0.002293	0.645156
-0.222567 -0.001000 -0.008620 0.002321	0.640208
-0.222372 -0.001000 -0.008725 0.002312	0.638185
-0.221610 -0.001000 -0.009135 0.002343	0.628258
-0.221434 -0.001000 -0.009229 0.002341	0.626597
-0.220674 -0.001000 -0.009630 0.002288	0.621061
-0.220205 -0.001000 -0.009874 0.002304	0.616653
-0.219670 -0.001000 -0.010151 0.002321	0.613082
-0.218941 -0.001000 -0.010524 0.002329	0.607169
-0.218706 -0.001000 -0.010643 0.002337	0.604876
-0.217885 -0.001000 -0.011056 0.002345	0.596327
-0.217741 -0.001000 -0.011127 0.002344	0.594737
-0.216850 -0.001000 -0.011567 0.002447	0.588289
-0.216326 -0.001000 -0.011823 0.002470	0.585224
-0.215777 -0.001000 -0.012090 0.002455	0.581232
-0.214694 -0.001000 -0.012607 0.002441	0.572364
-0.214482 -0.001000 -0.012708 0.002440	0.570504
-0.214247 -0.001000 -0.012818 0.002455	0.568489
-0.213151 -0.001000 -0.013330 0.002540	0.558913
-0.212735 -0.001000 -0.013522 0.002545	0.555581
-0.211731 -0.001000 -0.013981 0.002472	0.549061
-0.211170 -0.001000 -0.014233 0.002491	0.545135
-0.209998 -0.001000 -0.014756 0.002564	0.537197
-0.209611 -0.001000 -0.014927 0.002568	0.535318
-0.208237 -0.001000 -0.015526 0.002598	0.526019
-0.208226 -0.001000 -0.015531 0.002598	0.525928
-0.208192 -0.001000 -0.015546 0.002599	0.525672
-0.206916 -0.001000 -0.016092 0.002611	0.516697
-0.206247 -0.001000 -0.016374 0.002653	0.512585
-0.205144 -0.001000 -0.016835 0.002642	0.505229
-0.204949 -0.001000 -0.016916 0.002608	0.504180
-0.204618 -0.001000 -0.017052 0.002660	0.501730
-0.203671 -0.001000 -0.017442 0.002708	0.496746
-0.203089 -0.001000 -0.017677 0.002715	0.494107
-0.201988 -0.001000 -0.018120 0.002718	0.490028
-0.201015 -0.001000 -0.018506 0.002703	0.485850
-0.200354 -0.001000 -0.018766 0.002671	0.482940
-0.199098 -0.001000 -0.019255 0.002682	0.475293
-0.198523 -0.001000 -0.019476 0.002683	0.471982
-0.197447 -0.001000 -0.019888 0.002738	0.466922
-0.196012 -0.001000 -0.020427 0.002784	0.462044
-0.195981 -0.001000 -0.020438 0.002782	0.461910
-0.195884 -0.001000 -0.020474 0.002784	0.461366
-0.194068 -0.001000 -0.021144 0.002732	0.450920
-0.193839 -0.001000 -0.021227 0.002729	0.450122
-0.191659 -0.001000 -0.022014 0.002828	0.442914
-0.191503 -0.001000 -0.022070 0.002834	0.442483
-0.191272 -0.001000 -0.022152 0.002835	0.441411
-0.189508 -0.001000 -0.022774 0.002790	0.433109
-0.188456 -0.001000 -0.023139 0.002750	0.430223
-0.187790 -0.001000 -0.023370 0.002693	0.428335
-0.186495 -0.001000 -0.023811 0.002733	0.424451
-0.186148 -0.001000 -0.023930 0.002736	0.423312
-0.186059 -0.001000 -0.023960 0.002742	0.422993
-0.184494 -0.001000 -0.024485 0.002947	0.416662
-0.184090 -0.001000 -0.024619 0.002938	0.414689
-0.182945 -0.001000 -0.024997 0.002860	0.409368
-0.181597 -0.001000 -0.025437 0.002861	0.404352
-0.181227 -0.001000 -0.025557 0.002820	0.402739
-0.180129 -0.001000 -0.025909 0.002846	0.399479
-0.179260 -0.001000 -0.026187 0.002836	0.396711
-0.179148 -0.001000 -0.026222 0.002833	0.396439
-0.178076 -0.001000 -0.026559 0.002783	0.393801
-0.177050 -0.001000 -0.026882 0.002704	0.391336
-0.176597 -0.001000 -0.027023 0.002711	0.390261
-0.174866 -0.001000 -0.027558 0.002684	0.386103
-0.173237 -0.001000 -0.028053 0.002750	0.378122
-0.172644 -0.001000 -0.028233 0.002804	0.374674
-0.171972 -0.001000 -0.028433 0.002773	0.373104
-0.170369 -0.001000 -0.028908 0.002719	0.369265
-0.168988 -0.001000 -0.029311 0.002656	0.368557
-0.167734 -0.001000 -0.029675 0.002607	0.366784
-0.165455 -0.001000 -0.030329 0.002689	0.361717
-0.164563 -0.001000 -0.030582 0.002705	0.359534
-0.162414 -0.001000 -0.031185 0.002734	0.353403
-0.161386 -0.001000 -0.031469 0.002772	0.350797
-0.159695 -0.001000 -0.031932 0.002848	0.345717
-0.159009 -0.001000 -0.032117 0.002831	0.343901
-0.157555 -0.001000 -0.032508 0.002739	0.339975
-0.155502 -0.001000 -0.033051 0.002737	0.336298
-0.155248 -0.001000 -0.033119 0.002725	0.335892
-0.155030 -0.001000 -0.033175 0.002736	0.335363
-0.152777 -0.001000 -0.033763 0.002748	0.329637
-0.151429 -0.001000 -0.034109 0.002792	0.328114
-0.149955 -0.001000 -0.034485 0.002741	0.326057
-0.147839 -0.001000 -0.035018 0.002656	0.322526
-0.146147 -0.001000 -0.035439 0.002646	0.319428
-0.144649 -0.001000 -0.035808 0.002582	0.317866
-0.142968 -0.001000 -0.036217 0.002641	0.316875
-0.142201 -0.001000 -0.036403 0.002712	0.315329
-0.141073 -0.001000 -0.036676 0.002757	0.313218
-0.139172 -0.001000 -0.037126 0.002768	0.307647
-0.138672 -0.001000 -0.037245 0.002744	0.306166
-0.138564 -0.001000 -0.037270 0.002739	0.305851
-0.138439 -0.001000 -0.037299 0.002740	0.305611
-0.135654 -0.001000 -0.037948 0.002817	0.300951
-0.135109 -0.001000 -0.038073 0.002859	0.300018
-0.131863 -0.001000 -0.038812 0.002745	0.295733
-0.131619 -0.001000 -0.038867 0.002726	0.295459
-0.131432 -0.001000 -0.038909 0.002726	0.295242
-0.128000 -0.001000 -0.039672 0.002670	0.291128
-0.127013 -0.001000 -0.039887 0.002686	0.290192
-0.124492 -0.001000 -0.040434 0.002588	0.286633
-0.122956 -0.001000 -0.040764 0.002589	0.284650
-0.121163 -0.001000 -0.041144 0.002589	0.282602
-0.119844 -0.001000 -0.041421 0.002575	0.280725
-0.117496 -0.001000 -0.041908 0.002543	0.280289
-0.116898 -0.001000 -0.042032 0.002516	0.279846
-0.115592 -0.001000 -0.042299 0.002471	0.277846
-0.114055 -0.001000 -0.042612 0.002407	0.274468
-0.112247 -0.001000 -0.042975 0.002541	0.272011
-0.110824 -0.001000 -0.043259 0.002586	0.270710
-0.109136 -0.001000 -0.043592 0.002506	0.268005
-0.106647 -0.001000 -0.044077 0.002455	0.264856
-0.105189 -0.001000 -0.044359 0.002423	0.263365
-0.102134 -0.001000 -0.044939 0.002529	0.259958
-0.101123 -0.001000 -0.045130 0.002524	0.258621
-0.099355 -0.001000 -0.045458 0.002600	0.257645
-0.097291 -0.001000 -0.045840 0.002517	0.256747
-0.093469 -0.001000 -0.046533 0.002626	0.253642
-0.093168 -0.001000 -0.046587 0.002638	0.253400
-0.089793 -0.001000 -0.047188 0.002567	0.251072
-0.088030 -0.001000 -0.047496 0.002528	0.248985
-0.085360 -0.001000 -0.047960 0.002514	0.246697
-0.083502 -0.001000 -0.048277 0.002543	0.244664
-0.081308 -0.001000 -0.048649 0.002518	0.241407
-0.077988 -0.001000 -0.049201 0.002538	0.237872
-0.076727 -0.001000 -0.049409 0.002534	0.236730
-0.075208 -0.001000 -0.049655 0.002538	0.235685
-0.071849 -0.001000 -0.050197 0.002403	0.233181
-0.067919 -0.001000 -0.050815 0.002363	0.230727
-0.066797 -0.001000 -0.050990 0.002367	0.230103
-0.062260 -0.001000 -0.051685 0.002517	0.229061
-0.061582 -0.001000 -0.051788 0.002516	0.228652
-0.056394 -0.001000 -0.052562 0.002337	0.225331
-0.056106 -0.001000 -0.052605 0.002339	0.225180
-0.051630 -0.001000 -0.053256 0.002394	0.221781
-0.047716 -0.001000 -0.053811 0.002413	0.221150
-0.046700 -0.001000 -0.053955 0.002414	0.220985
-0.046634 -0.001000 -0.053965 0.002411	0.220968
-0.046448 -0.001000 -0.053990 0.002411	0.220781
-0.041269 -0.001000 -0.054705 0.002280	0.215638
-0.035574 -0.001000 -0.055465 0.002204	0.212270
-0.034761 -0.001000 -0.055574 0.002189	0.211660
-0.033794 -0.001000 -0.055699 0.002148	0.211527
-0.027833 -0.001000 -0.056467 0.001946	0.211212
-0.021012 -0.001000 -0.057316 0.002104	0.208371
-0.020666 -0.001000 -0.057359 0.002106	0.208134
-0.020355 -0.001000 -0.057397 0.002111	0.208022
-0.013980 -0.001000 -0.058164 0.002149	0.204579
-0.009757 -0.001000 -0.058656 0.002101	0.203002
-0.007324 -0.001000 -0.058938 0.002074	0.202102
-0.000698 -0.001000 -0.059682 0.001869	0.201071
0.000026 -0.001000 -0.059763 0.001842	0.200943
0.001967 -0.001000 -0.059971 0.001850	0.199702
0.007998 -0.001000 -0.060621 0.001808	0.195461
0.009422 -0.001000 -0.060769 0.001824	0.195677
0.017219 -0.001000 -0.061568 0.001764	0.194865
0.018660 -0.001000 -0.061712 0.001785	0.194225
0.026428 -0.001000 -0.062471 0.001739	0.191492
0.026801 -0.001000 -0.062507 0.001736	0.191357
0.027882 -0.001000 -0.062609 0.001759	0.191011
0.034100 -0.001000 -0.063194 0.001772	0.189166
0.039315 -0.001000 -0.063667 0.001831	0.188319
0.041454 -0.001000 -0.063861 0.001778	0.188168
0.042579 -0.001000 -0.063959 0.001801	0.188016
0.048608 -0.001000 -0.064485 0.001938	0.185018
0.051605 -0.001000 -0.064739 0.001923	0.184166
0.056374 -0.001000 -0.065137 0.001841	0.184902
0.059608 -0.001000 -0.065399 0.001792	0.183240
0.066225 -0.001000 -0.065923 0.001733	0.181320
0.068347 -0.001000 -0.066088 0.001711	0.181639
0.078176 -0.001000 -0.066821 0.001360	0.183780
0.078368 -0.001000 -0.066835 0.001352	0.183788
0.078998 -0.001000 -0.066879 0.001372	0.183696
0.088665 -0.001000 -0.067561 0.001533	0.181606
0.094273 -0.001000 -0.067937 0.001694	0.180506
0.098634 -0.001000 -0.068228 0.001712	0.179723
0.104114 -0.001000 -0.068577 0.001751	0.180998
0.107068 -0.001000 -0.068764 0.001707	0.181559
0.114649 -0.001000 -0.069225 0.001831	0.180005
0.116799 -0.001000 -0.069352 0.001840	0.179537
0.123425 -0.001000 -0.069736 0.001661	0.177937
0.129901 -0.001000 -0.070093 0.001503	0.178458
0.133258 -0.001000 -0.070277 0.001484	0.178550
0.137323 -0.001000 -0.070487 0.001463	0.179196
0.144509 -0.001000 -0.070857 0.001401	0.178574
0.152526 -0.001000 -0.071243 0.001263	0.179351
0.157304 -0.001000 -0.071469 0.001261	0.179394
0.164104 -0.001000 -0.071766 0.001417	0.178381
0.169505 -0.001000 -0.072005 0.001432	0.176870
0.171925 -0.001000 -0.072104 0.001456	0.177023
0.182643 -0.001000 -0.072532 0.001352	0.177828
0.185677 -0.001000 -0.072649 0.001396	0.177919
0.191725 -0.001000 -0.072867 0.001423	0.179875
0.197760 -0.001000 -0.073084 0.001472	0.181625
0.208180 -0.001000 -0.073429 0.001537	0.181689
0.209131 -0.001000 -0.073460 0.001525	0.181689
0.222253 -0.001000 -0.073856 0.001505	0.185243
0.224393 -0.001000 -0.073915 0.001497	0.185751
0.236320 -0.001000 -0.074240 0.001287	0.186933
0.250813 -0.001000 -0.074594 0.001539	0.188875
0.250955 -0.001000 -0.074597 0.001540	0.188897
0.251010 -0.001000 -0.074599 0.001541	0.188907
0.264638 -0.001000 -0.074891 0.001296	0.191144
0.268482 -0.001000 -0.074963 0.001301	0.191217
0.279233 -0.001000 -0.075150 0.001295	0.191566
0.283343 -0.001000 -0.075218 0.001291	0.191666
0.289950 -0.001000 -0.075312 0.001381	0.191111
0.295260 -0.001000 -0.075384 0.001343	0.191345
0.302681 -0.001000 -0.075474 0.001289	0.193446
0.312093 -0.001000 -0.075571 0.001319	0.196832
0.315708 -0.001000 -0.075606 0.001250	0.198029
0.320731 -0.001000 -0.075645 0.001192	0.199175
0.331444 -0.001000 -0.075727 0.001076	0.200404
0.344544 -0.001000 -0.075796 0.001151	0.204975
0.346995 -0.001000 -0.075809 0.001154	0.205690
0.348030 -0.001000 -0.075812 0.001161	0.206133
0.362849 -0.001000 -0.075854 0.001132	0.212510
0.367815 -0.001000 -0.075858 0.001128	0.213999
0.379341 -0.001000 -0.075853 0.001249	0.216398
0.384139 -0.001000 -0.075845 0.001239	0.217092
0.396679 -0.001000 -0.075799 0.001217	0.220486
0.400206 -0.001000 -0.075787 0.001173	0.221503
0.414343 -0.001000 -0.075699 0.001174	0.225690
0.417038 -0.001000 -0.075683 0.001163	0.226631
0.430582 -0.001000 -0.075565 0.001076	0.231017
0.433971 -0.001000 -0.075535 0.001048	0.232162
0.434194 -0.001000 -0.075533 0.001044	0.232241
0.434696 -0.001000 -0.075528 0.001043	0.232424
0.448585 -0.001000 -0.075377 0.001022	0.237556
0.462949 -0.001000 -0.075194 0.001228	0.243639
0.462960 -0.001000 -0.075194 0.001228	0.243644
0.462999 -0.001000 -0.075193 0.001227	0.243656
0.477140 -0.001000 -0.074983 0.000969	0.248091
0.478053 -0.001000 -0.074968 0.000955	0.248416
0.487404 -0.001000 -0.074809 0.001043	0.251742
0.490946 -0.001000 -0.074748 0.001066	0.252956
0.492194 -0.001000 -0.074726 0.001072	0.253417
0.503640 -0.001000 -0.074509 0.000989	0.257631
0.517000 -0.001000 -0.074231 0.000925	0.262136
0.518256 -0.001000 -0.074205 0.000915	0.262607
0.521068 -0.001000 -0.074140 0.000928	0.263809
0.535590 -0.001000 -0.073805 0.000957	0.270186
0.538488 -0.001000 -0.073732 0.000961	0.271443
0.555609 -0.001000 -0.073289 0.000850	0.280363
0.558626 -0.001000 -0.073208 0.000818	0.282191
0.563290 -0.001000 -0.073075 0.000851	0.284314
0.577540 -0.001000 -0.072665 0.000828	0.291229
0.585143 -0.001000 -0.072432 0.000853	0.295196
0.596713 -0.001000 -0.072062 0.000787	0.300736
0.602244 -0.001000 -0.071881 0.000680	0.303353
0.613905 -0.001000 -0.071476 0.000769	0.309339
0.617215 -0.001000 -0.071362 0.000777	0.311053
0.620131 -0.001000 -0.071254 0.000780	0.312684
0.632046 -0.001000 -0.070813 0.000747	0.319479
0.637581 -0.001000 -0.070597 0.000675	0.322260
0.648137 -0.001000 -0.070175 0.000638	0.327973
0.651857 -0.001000 -0.070020 0.000619	0.330354
0.664114 -0.001000 -0.069500 0.000573	0.339258
0.667433 -0.001000 -0.069356 0.000566	0.341796
0.670599 -0.001000 -0.069213 0.000548	0.344097
0.682969 -0.001000 -0.068656 0.000479	0.353455
0.688901 -0.001000 -0.068375 0.000490	0.358612
0.698353 -0.001000 -0.067926 0.000461	0.366477
0.711373 -0.001000 -0.067276 0.000372	0.379438
0.714791 -0.001000 -0.067105 0.000327	0.382854
0.725147 -0.001000 -0.066564 0.000216	0.395144
0.727940 -0.001000 -0.066418 0.000182	0.398419
0.728607 -0.001000 -0.066383 0.000177	0.399285
0.730670 -0.001000 -0.066271 0.000153	0.401858
0.736742 -0.001000 -0.065943 0.000081	0.409514
0.737322 -0.001000 -0.065912 0.000076	0.410357
0.741792 -0.001000 -0.065666 0.000070	0.416874
0.742175 -0.001000 -0.065644 0.000066	0.417334
0.744594 -0.001000 -0.065510 0.000085	0.420511
0.744921 -0.001000 -0.065492 0.000086	0.420977
0.746035 -0.001000 -0.065429 0.000106	0.422356
0.746095 -0.001000 -0.065426 0.000105	0.422396
0.746132 -0.001000 -0.065424 0.000104	0.422586
0.746598 -0.001000 -0.065398 0.000077	0.423513
0.746781 -0.001000 -0.065387 0.000092	0.424044
0.746830 -0.001000 -0.065385 0.000097	0.424185
0.746864 -0.001000 -0.065383 0.000099	0.424776
0.747000 -0.001000 -0.065375 0.000103	0.427746
0.747071 -0.001000 -0.065371 0.000046	0.421930
0.747146 -0.001000 -0.065367 0.000010	0.420401
0.747069 -0.001000 -0.065349 0.000014	0.421211
0.746987 -0.001000 -0.065329 0.000030	0.427455
0.746768 -0.001000 -0.065278 0.000008	0.425500
0.746768 -0.001000 -0.065278 0.000008	0.425500
0.746767 -0.001000 -0.065278 0.000008	0.425498
0.746374 -0.001000 -0.065186 0.000007	0.423887
0.746189 -0.001000 -0.065142 0.000000	0.423783
0.745687 -0.001000 -0.065024 -0.000017	0.423417
0.745301 -0.001000 -0.064934 -0.000028	0.423199
0.744345 -0.001000 -0.064710 -0.000057	0.422315
0.744106 -0.001000 -0.064654 -0.000065	0.422059
0.741982 -0.001000 -0.064156 -0.000111	0.419873
0.740755 -0.001000 -0.063869 -0.000128	0.418546
0.736995 -0.001000 -0.062991 -0.000166	0.414477
0.736486 -0.001000 -0.062873 -0.000168	0.413951
0.729673 -0.001000 -0.061288 -0.000180	0.407002
0.723202 -0.001000 -0.059792 -0.000189	0.400805
0.719273 -0.001000 -0.058885 -0.000186	0.397103
0.706118 -0.001000 -0.055873 -0.000186	0.384763
0.704501 -0.001000 -0.055502 -0.000184	0.383246
0.703608 -0.001000 -0.055299 -0.000184	0.382426
0.689080 -0.001000 -0.052010 -0.000167	0.369002
0.685213 -0.001000 -0.051143 -0.000157	0.365257
0.673464 -0.001000 -0.048513 -0.000101	0.353932
0.667879 -0.001000 -0.047277 -0.000069	0.348529
0.659942 -0.001000 -0.045519 -0.000020	0.340868
0.644138 -0.001000 -0.042056 0.000102	0.326395
0.643297 -0.001000 -0.041871 0.000111	0.325618
0.642316 -0.001000 -0.041658 0.000117	0.324753
0.623043 -0.001000 -0.037504 0.000222	0.308459
0.614685 -0.001000 -0.035720 0.000252	0.302088
0.605648 -0.001000 -0.033807 0.000280	0.295550
0.596558 -0.001000 -0.031892 0.000324	0.288866
0.589491 -0.001000 -0.030415 0.000337	0.283545
0.582477 -0.001000 -0.028954 0.000338	0.278383
0.574914 -0.001000 -0.027389 0.000350	0.272817
0.562375 -0.001000 -0.024811 0.000399	0.263405
0.561709 -0.001000 -0.024675 0.000400	0.262908
0.546428 -0.001000 -0.021566 0.000409	0.251055
0.545235 -0.001000 -0.021324 0.000409	0.250147
0.532868 -0.001000 -0.018834 0.000424	0.240927
0.525142 -0.001000 -0.017293 0.000470	0.235171
0.519319 -0.001000 -0.016132 0.000497	0.230864
0.515157 -0.001000 -0.015310 0.000509	0.227952
0.506054 -0.001000 -0.013515 0.000515	0.221520
0.497639 -0.001000 -0.011868 0.000548	0.215748
0.493910 -0.001000 -0.011141 0.000570	0.213139
0.481195 -0.001000 -0.008680 0.000656	0.203980
0.480856 -0.001000 -0.008615 0.000654	0.203743
0.466058 -0.001000 -0.005784 0.000610	0.193406
0.463425 -0.001000 -0.005284 0.000624	0.191387
0.451475 -0.001000 -0.003027 0.000655	0.182278
0.447451 -0.001000 -0.002273 0.000666	0.179258
0.436821 -0.001000 -0.000286 0.000696	0.171351
0.432869 -0.001000 0.000446 0.000704	0.168371
0.425200 -0.001000 0.001866 0.000703	0.162426
0.418954 -0.001000 0.003012 0.000737	0.157759
0.413929 -0.001000 0.003933 0.000752	0.154089
0.404151 -0.001000 0.005709 0.000823	0.146949
0.402664 -0.001000 0.005978 0.000821	0.145822
0.391403 -0.001000 0.008001 0.000801	0.137294
0.389508 -0.001000 0.008339 0.000803	0.135814
0.379742 -0.001000 0.010072 0.000768	0.128534
0.374622 -0.001000 0.010972 0.000760	0.124682
0.366608 -0.001000 0.012374 0.000734	0.118224
0.360767 -0.001000 0.013385 0.000773	0.113298
0.354581 -0.001000 0.014455 0.000859	0.107989
0.345920 -0.001000 0.015937 0.000908	0.100336
0.342576 -0.001000 0.016508 0.000916	0.097398
0.334730 -0.001000 0.017838 0.000921	0.090708
0.329883 -0.001000 0.018655 0.000920	0.086696
0.322219 -0.001000 0.019939 0.000941	0.079786
0.320910 -0.001000 0.020157 0.000948	0.078662
0.311918 -0.001000 0.021647 0.001006	0.071110
0.304396 -0.001000 0.022880 0.001094	0.065393
0.303601 -0.001000 0.023011 0.001090	0.064798
0.303331 -0.001000 0.023055 0.001096	0.064567
0.299438 -0.001000 0.023686 0.001102	0.061263
0.294514 -0.001000 0.024484 0.001092	0.057115
0.293390 -0.001000 0.024664 0.001096	0.056259
0.286340 -0.001000 0.025793 0.001048	0.051457
0.278534 -0.001000 0.027028 0.001027	0.046544
0.277484 -0.001000 0.027194 0.001019	0.045892
0.276929 -0.001000 0.027281 0.001018	0.045532
0.267793 -0.001000 0.028702 0.001101	0.038549
0.265798 -0.001000 0.029012 0.001117	0.037036
0.265465 -0.001000 0.029064 0.001117	0.036751
0.264673 -0.001000 0.029184 0.001117	0.036017
0.253829 -0.001000 0.030837 0.001057	0.026168
0.250493 -0.001000 0.031340 0.001079	0.022678
0.241051 -0.001000 0.032755 0.001136	0.013476
0.237760 -0.001000 0.033245 0.001176	0.010341
0.230557 -0.001000 0.034306 0.001360	0.003312
0.230245 -0.001000 0.034352 0.001361	0.002995
0.224789 -0.001000 0.035147 0.001378	-0.002421
0.223347 -0.001000 0.035357 0.001379	-0.003851
0.223164 -0.001000 0.035384 0.001378	-0.004034
0.216576 -0.001000 0.036334 0.001234	-0.010362
0.210852 -0.001000 0.037150 0.001256	-0.015641
0.210702 -0.001000 0.037171 0.001256	-0.015785
0.210589 -0.001000 0.037187 0.001257	-0.015900
0.204520 -0.001000 0.038043 0.001295	-0.021703
0.196840 -0.001000 0.039113 0.001306	-0.028317
0.196791 -0.001000 0.039119 0.001306	-0.028363
0.196688 -0.001000 0.039133 0.001307	-0.028460
0.188981 -0.001000 0.040190 0.001324	-0.035802
0.187735 -0.001000 0.040359 0.001357	-0.037046
0.180997 -0.001000 0.041267 0.001351	-0.042863
0.179953 -0.001000 0.041406 0.001375	-0.043701
0.171305 -0.001000 0.042548 0.001326	-0.051074
0.170969 -0.001000 0.042593 0.001324	-0.051365
0.170859 -0.001000 0.042607 0.001324	-0.051455
0.170536 -0.001000 0.042649 0.001332	-0.051760
0.161954 -0.001000 0.043757 0.001495	-0.059647
0.160737 -0.001000 0.043913 0.001489	-0.060873
0.158222 -0.001000 0.044230 0.001528	-0.063205
0.153259 -0.001000 0.044857 0.001466	-0.068106
0.148461 -0.001000 0.045451 0.001490	-0.071794
0.144798 -0.001000 0.045903 0.001512	-0.074508
0.138242 -0.001000 0.046696 0.001602	-0.079867
0.136284 -0.001000 0.046931 0.001643	-0.081663
0.130214 -0.001000 0.047650 0.001680	-0.087533
0.127512 -0.001000 0.047964 0.001663	-0.090225
0.123059 -0.001000 0.048480 0.001590	-0.094663
0.120584 -0.001000 0.048763 0.001599	-0.096802
0.114534 -0.001000 0.049446 0.001652	-0.101690
0.112455 -0.001000 0.049679 0.001650	-0.103774
0.110591 -0.001000 0.049884 0.001632	-0.105519
0.104587 -0.001000 0.050542 0.001604	-0.111461
0.101980 -0.001000 0.050822 0.001611	-0.114029
0.096221 -0.001000 0.051435 0.001593	-0.119371
0.091006 -0.001000 0.051978 0.001649	-0.125869
0.088036 -0.001000 0.052285 0.001677	-0.129872
0.082428 -0.001000 0.052853 0.001747	-0.136030
0.078843 -0.001000 0.053209 0.001787	-0.139476
0.073623 -0.001000 0.053717 0.001866	-0.143942
0.070939 -0.001000 0.053972 0.001891	-0.146209
0.066373 -0.001000 0.054401 0.001922	-0.149669
0.062117 -0.001000 0.054789 0.001984	-0.153577
0.060307 -0.001000 0.054954 0.001977	-0.155384
0.056038 -0.001000 0.055331 0.002077	-0.159011
0.053972 -0.001000 0.055514 0.002069	-0.160901
0.052810 -0.001000 0.055614 0.002083	-0.161715
0.046860 -0.001000 0.056120 0.002030	-0.166254
0.043254 -0.001000 0.056418 0.002121	-0.169775
0.040637 -0.001000 0.056632 0.002136	-0.172614
0.038076 -0.001000 0.056834 0.002097	-0.175068
0.033260 -0.001000 0.057215 0.001926	-0.179347
0.030060 -0.001000 0.057459 0.002012	-0.183448
0.024590 -0.001000 0.057869 0.002150	-0.190590
0.022333 -0.001000 0.058032 0.002116	-0.193991
0.017301 -0.001000 0.058389 0.002078	-0.199049
0.014166 -0.001000 0.058601 0.002075	-0.202679
0.011428 -0.001000 0.058785 0.002114	-0.206449
0.006919 -0.001000 0.059074 0.002353	-0.207056
0.005686 -0.001000 0.059152 0.002315	-0.207854
0.002127 -0.001000 0.059367 0.002422	-0.211284
-0.000872 -0.001000 0.059548 0.002343	-0.214722
-0.003969 -0.001000 0.059721 0.002527	-0.217644
-0.007730 -0.001000 0.059934 0.002605	-0.220694
-0.009460 -0.001000 0.060027 0.002545	-0.223275
-0.015717 -0.001000 0.060349 0.002212	-0.228540
-0.016888 -0.001000 0.060408 0.002145	-0.229570
-0.020567 -0.001000 0.060580 0.002314	-0.235235
-0.024247 -0.001000 0.060753 0.002425	-0.240282
-0.027815 -0.001000 0.060904 0.002399	-0.243014
-0.031180 -0.001000 0.061043 0.002376	-0.245941
-0.033491 -0.001000 0.061131 0.002438	-0.247056
-0.038023 -0.001000 0.061294 0.002657	-0.251017
-0.039410 -0.001000 0.061342 0.002639	-0.252028
-0.043545 -0.001000 0.061473 0.002468	-0.255633
-0.044333 -0.001000 0.061497 0.002489	-0.256725
-0.049260 -0.001000 0.061634 0.002454	-0.262151
-0.050282 -0.001000 0.061661 0.002433	-0.262949
-0.051434 -0.001000 0.061689 0.002443	-0.263992
-0.057554 -0.001000 0.061826 0.002402	-0.268535
-0.059111 -0.001000 0.061859 0.002287	-0.269791
-0.060916 -0.001000 0.061889 0.002369	-0.272410
-0.065853 -0.001000 0.061967 0.002305	-0.279964
-0.069133 -0.001000 0.062006 0.002591	-0.283772
-0.073003 -0.001000 0.062037 0.002939	-0.288513
-0.075333 -0.001000 0.062052 0.002897	-0.290703
-0.079916 -0.001000 0.062062 0.002925	-0.290944
-0.080908 -0.001000 0.062063 0.002913	-0.291614
-0.084699 -0.001000 0.062052 0.003029	-0.296669
-0.086297 -0.001000 0.062047 0.002996	-0.298926
-0.087489 -0.001000 0.062037 0.003059	-0.301173
-0.092011 -0.001000 0.062001 0.002892	-0.309469
-0.093605 -0.001000 0.061981 0.003044	-0.311229
-0.097403 -0.001000 0.061926 0.003112	-0.313825
-0.099072 -0.001000 0.061897 0.003135	-0.313227
-0.102917 -0.001000 0.061817 0.003491	-0.309790
-0.103863 -0.001000 0.061796 0.003514	-0.310767
-0.107760 -0.001000 0.061693 0.003192	-0.318427
-0.108568 -0.001000 0.061671 0.003101	-0.320152
-0.109103 -0.001000 0.061654 0.003142	-0.321299
-0.113456 -0.001000 0.061516 0.003396	-0.329185
-0.118340 -0.001000 0.061330 0.003283	-0.339400
-0.118808 -0.001000 0.061312 0.003260	-0.340638
-0.119065 -0.001000 0.061301 0.003239	-0.340954
-0.123676 -0.001000 0.061091 0.002967	-0.341746
-0.124920 -0.001000 0.061035 0.002881	-0.341832
-0.125120 -0.001000 0.061024 0.002887	-0.342047
-0.129290 -0.001000 0.060805 0.003018	-0.340706
-0.132662 -0.001000 0.060609 0.003370	-0.348506
-0.133121 -0.001000 0.060583 0.003398	-0.349611
-0.133280 -0.001000 0.060573 0.003406	-0.349919
-0.137621 -0.001000 0.060292 0.003550	-0.357289
-0.138282 -0.001000 0.060247 0.003587	-0.357871
-0.142329 -0.001000 0.059955 0.003588	-0.359916
-0.142410 -0.001000 0.059949 0.003588	-0.359983
-0.143068 -0.001000 0.059898 0.003666	-0.360618
-0.145849 -0.001000 0.059681 0.003903	-0.363868
-0.147403 -0.001000 0.059551 0.003926	-0.365931
-0.149338 -0.001000 0.059389 0.003822	-0.369225
-0.149800 -0.001000 0.059350 0.003855	-0.370864