TITLE     = "Surface mesh and solution"
VARIABLES = "x"
"y"
"z"
"cfx"
"Cp"
DATASETAUXDATA alpha_deg="  0.0000000E+00"
DATASETAUXDATA beta_deg="  0.0000000E+00"
DATASETAUXDATA bref="  0.7500000"
DATASETAUXDATA cref="   1.000000"
DATASETAUXDATA itranflg="           0"
DATASETAUXDATA ivisc="           2"
DATASETAUXDATA mach="  0.2000000"
DATASETAUXDATA reue_mil="   4.600000"
DATASETAUXDATA sref="  0.7500000"
DATASETAUXDATA tinf_r="   521.0000"
DATASETAUXDATA xmc="  0.0000000E+00"
DATASETAUXDATA ymc="  0.0000000E+00"
DATASETAUXDATA zmc="  0.0000000E+00"
ZONE T="Slice: Y=-0.035"
STRANDID=0, SOLUTIONTIME=0
Nodes=721, Elements=721, ZONETYPE=FELineSeg
DATAPACKING=POINT
DT=(DOUBLE DOUBLE DOUBLE DOUBLE DOUBLE )
-0.246262 -0.035000 0.038270 -0.000693	0.530733
-0.246288 -0.035000 0.038466 -0.000645	0.534751
-0.246361 -0.035000 0.039099 -0.000496	0.511563
-0.246381 -0.035000 0.039291 -0.000429	0.485136
-0.246393 -0.035000 0.039479 -0.000353	0.460366
-0.246426 -0.035000 0.040047 -0.000178	0.373936
-0.246435 -0.035000 0.040452 -0.000063	0.298514
-0.246439 -0.035000 0.040760 0.000035	0.247037
-0.246425 -0.035000 0.041218 0.000180	0.193151
-0.246418 -0.035000 0.041508 0.000273	0.160933
-0.246398 -0.035000 0.041766 0.000394	0.141014
-0.246363 -0.035000 0.042239 0.000593	0.074924
-0.246318 -0.035000 0.042617 0.000809	0.048441
-0.246284 -0.035000 0.042891 0.000961	0.019301
-0.246211 -0.035000 0.043357 0.001323	-0.048538
-0.246202 -0.035000 0.043412 0.001360	-0.059035
-0.246198 -0.035000 0.043433 0.001384	-0.062377
-0.246188 -0.035000 0.043483 0.001428	-0.073161
-0.246095 -0.035000 0.043960 0.001834	-0.199568
-0.246061 -0.035000 0.044113 0.001998	-0.215214
-0.245928 -0.035000 0.044658 0.002294	-0.280068
-0.245902 -0.035000 0.044757 0.002405	-0.292025
-0.245858 -0.035000 0.044913 0.002484	-0.305452
-0.245712 -0.035000 0.045408 0.002845	-0.399539
-0.245700 -0.035000 0.045444 0.002863	-0.408532
-0.245528 -0.035000 0.045954 0.003374	-0.495486
-0.245457 -0.035000 0.046149 0.003682	-0.515000
-0.245307 -0.035000 0.046537 0.004244	-0.549889
-0.245240 -0.035000 0.046706 0.004281	-0.587190
-0.245123 -0.035000 0.046976 0.004780	-0.634188
-0.245040 -0.035000 0.047169 0.004943	-0.668048
-0.244924 -0.035000 0.047417 0.005348	-0.683649
-0.244829 -0.035000 0.047620 0.005357	-0.691719
-0.244758 -0.035000 0.047763 0.005429	-0.718364
-0.244594 -0.035000 0.048085 0.005337	-0.774313
-0.244476 -0.035000 0.048303 0.005409	-0.824350
-0.244348 -0.035000 0.048538 0.005815	-0.853672
-0.244206 -0.035000 0.048782 0.005656	-0.877836
-0.244097 -0.035000 0.048968 0.005831	-0.883753
-0.243917 -0.035000 0.049261 0.005893	-0.925700
-0.243846 -0.035000 0.049374 0.006030	-0.935164
-0.243636 -0.035000 0.049695 0.006321	-0.980326
-0.243575 -0.035000 0.049786 0.006315	-0.991175
-0.243385 -0.035000 0.050064 0.006689	-1.004305
-0.243321 -0.035000 0.050152 0.006793	-1.007588
-0.243129 -0.035000 0.050421 0.007144	-1.012066
-0.242937 -0.035000 0.050674 0.007292	-1.044761
-0.242838 -0.035000 0.050806 0.007390	-1.059455
-0.242765 -0.035000 0.050899 0.007527	-1.065336
-0.242510 -0.035000 0.051220 0.007744	-1.090232
-0.242237 -0.035000 0.051550 0.008135	-1.101258
-0.242226 -0.035000 0.051562 0.008147	-1.101651
-0.242192 -0.035000 0.051601 0.008215	-1.104560
-0.241936 -0.035000 0.051897 0.008618	-1.129027
-0.241870 -0.035000 0.051972 0.008589	-1.135001
-0.241648 -0.035000 0.052216 0.008216	-1.164924
-0.241497 -0.035000 0.052379 0.008497	-1.180323
-0.241303 -0.035000 0.052583 0.008541	-1.187999
-0.241193 -0.035000 0.052698 0.008459	-1.191565
-0.241044 -0.035000 0.052848 0.008403	-1.208937
-0.240870 -0.035000 0.053023 0.008271	-1.224508
-0.240661 -0.035000 0.053226 0.008421	-1.223714
-0.240494 -0.035000 0.053388 0.008464	-1.221441
-0.240316 -0.035000 0.053553 0.008498	-1.222505
-0.240089 -0.035000 0.053764 0.008619	-1.229887
-0.239912 -0.035000 0.053922 0.008708	-1.235433
-0.239684 -0.035000 0.054125 0.009275	-1.242799
-0.239415 -0.035000 0.054356 0.009407	-1.257707
-0.239305 -0.035000 0.054450 0.009339	-1.257515
-0.238931 -0.035000 0.054760 0.009388	-1.256675
-0.238860 -0.035000 0.054818 0.009445	-1.256061
-0.238774 -0.035000 0.054886 0.009318	-1.258223
-0.238476 -0.035000 0.055124 0.008799	-1.259283
-0.238230 -0.035000 0.055313 0.008934	-1.262222
-0.238011 -0.035000 0.055482 0.009121	-1.262015
-0.237867 -0.035000 0.055588 0.009389	-1.265034
-0.237632 -0.035000 0.055763 0.009527	-1.258458
-0.237275 -0.035000 0.056021 0.009283	-1.264043
-0.237243 -0.035000 0.056045 0.009223	-1.263340
-0.237215 -0.035000 0.056064 0.009205	-1.263569
-0.236841 -0.035000 0.056325 0.009081	-1.262921
-0.236622 -0.035000 0.056477 0.008988	-1.262609
-0.236600 -0.035000 0.056492 0.008969	-1.262355
-0.236237 -0.035000 0.056736 0.008400	-1.264727
-0.235985 -0.035000 0.056901 0.008861	-1.270238
-0.235890 -0.035000 0.056963 0.009011	-1.267962
-0.235653 -0.035000 0.057115 0.009125	-1.263372
-0.235440 -0.035000 0.057250 0.009167	-1.259940
-0.235315 -0.035000 0.057328 0.009288	-1.260642
-0.235019 -0.035000 0.057511 0.009392	-1.262975
-0.234866 -0.035000 0.057605 0.009311	-1.261337
-0.234488 -0.035000 0.057831 0.009697	-1.243086
-0.234271 -0.035000 0.057958 0.009639	-1.240347
-0.234031 -0.035000 0.058098 0.009392	-1.234563
-0.233704 -0.035000 0.058285 0.009470	-1.234476
-0.233396 -0.035000 0.058456 0.009596	-1.236181
-0.233140 -0.035000 0.058598 0.009521	-1.228928
-0.232748 -0.035000 0.058808 0.009496	-1.234394
-0.232519 -0.035000 0.058931 0.009540	-1.231918
-0.232241 -0.035000 0.059076 0.009176	-1.226302
-0.231941 -0.035000 0.059232 0.009039	-1.216385
-0.231514 -0.035000 0.059447 0.009261	-1.213048
-0.231342 -0.035000 0.059534 0.009345	-1.211399
-0.231024 -0.035000 0.059689 0.009117	-1.200176
-0.230668 -0.035000 0.059863 0.008899	-1.188769
-0.230567 -0.035000 0.059912 0.008730	-1.185649
-0.229894 -0.035000 0.060228 0.008932	-1.162534
-0.229886 -0.035000 0.060231 0.008935	-1.162197
-0.229833 -0.035000 0.060256 0.008915	-1.162092
-0.229230 -0.035000 0.060531 0.008718	-1.161190
-0.229159 -0.035000 0.060563 0.008657	-1.161456
-0.228954 -0.035000 0.060653 0.008522	-1.161898
-0.228488 -0.035000 0.060858 0.008207	-1.163047
-0.227994 -0.035000 0.061069 0.008415	-1.151676
-0.227740 -0.035000 0.061177 0.008471	-1.145172
-0.227541 -0.035000 0.061259 0.008553	-1.139703
-0.226968 -0.035000 0.061495 0.008656	-1.125247
-0.226488 -0.035000 0.061687 0.008420	-1.117939
-0.226307 -0.035000 0.061759 0.008334	-1.116659
-0.226109 -0.035000 0.061837 0.008342	-1.118434
-0.225655 -0.035000 0.062013 0.008312	-1.121894
-0.225352 -0.035000 0.062127 0.008364	-1.121760
-0.225020 -0.035000 0.062253 0.008277	-1.118205
-0.224419 -0.035000 0.062474 0.008191	-1.105084
-0.224270 -0.035000 0.062529 0.008144	-1.099933
-0.224144 -0.035000 0.062574 0.008154	-1.097868
-0.223525 -0.035000 0.062795 0.007998	-1.083555
-0.222761 -0.035000 0.063059 0.007782	-1.068270
-0.222651 -0.035000 0.063097 0.007756	-1.066370
-0.221799 -0.035000 0.063382 0.007513	-1.053827
-0.221612 -0.035000 0.063444 0.007467	-1.051398
-0.221586 -0.035000 0.063453 0.007468	-1.050746
-0.221524 -0.035000 0.063473 0.007457	-1.049210
-0.220483 -0.035000 0.063806 0.007522	-1.027954
-0.219887 -0.035000 0.063990 0.007696	-1.017911
-0.219418 -0.035000 0.064134 0.007801	-1.010645
-0.219046 -0.035000 0.064244 0.007662	-1.006149
-0.218358 -0.035000 0.064447 0.007475	-1.002692
-0.217896 -0.035000 0.064580 0.007366	-0.999109
-0.217324 -0.035000 0.064743 0.007380	-0.996852
-0.216929 -0.035000 0.064853 0.007667	-0.995474
-0.216393 -0.035000 0.065000 0.007601	-0.978949
-0.216083 -0.035000 0.065084 0.007485	-0.970319
-0.215284 -0.035000 0.065296 0.007827	-0.959795
-0.215227 -0.035000 0.065311 0.007803	-0.959085
-0.214852 -0.035000 0.065407 0.007745	-0.956680
-0.214220 -0.035000 0.065569 0.007589	-0.951118
-0.214080 -0.035000 0.065605 0.007572	-0.950742
-0.213875 -0.035000 0.065656 0.007414	-0.947042
-0.213126 -0.035000 0.065841 0.006980	-0.933057
-0.212447 -0.035000 0.066003 0.007024	-0.923864
-0.212150 -0.035000 0.066074 0.007068	-0.920574
-0.211813 -0.035000 0.066152 0.007046	-0.916169
-0.211157 -0.035000 0.066305 0.007036	-0.907233
-0.210720 -0.035000 0.066403 0.006984	-0.902800
-0.209996 -0.035000 0.066565 0.006864	-0.892156
-0.209276 -0.035000 0.066721 0.006983	-0.883719
-0.208797 -0.035000 0.066823 0.006925	-0.878350
-0.208184 -0.035000 0.066951 0.006785	-0.871873
-0.207347 -0.035000 0.067122 0.006796	-0.858669
-0.207011 -0.035000 0.067191 0.006836	-0.855211
-0.206555 -0.035000 0.067280 0.006887	-0.850795
-0.205726 -0.035000 0.067443 0.006894	-0.843489
-0.205175 -0.035000 0.067547 0.006837	-0.841598
-0.204211 -0.035000 0.067727 0.006757	-0.829975
-0.203714 -0.035000 0.067817 0.006937	-0.825074
-0.202495 -0.035000 0.068034 0.006741	-0.811243
-0.202159 -0.035000 0.068092 0.006736	-0.805217
-0.201107 -0.035000 0.068269 0.006508	-0.792812
-0.200756 -0.035000 0.068329 0.006428	-0.789275
-0.200572 -0.035000 0.068359 0.006531	-0.787507
-0.199382 -0.035000 0.068550 0.006709	-0.779635
-0.198447 -0.035000 0.068694 0.006598	-0.768622
-0.198129 -0.035000 0.068743 0.006565	-0.765043
-0.196684 -0.035000 0.068958 0.006507	-0.751232
-0.196655 -0.035000 0.068962 0.006498	-0.750989
-0.195417 -0.035000 0.069138 0.006169	-0.748317
-0.193593 -0.035000 0.069383 0.006314	-0.731379
-0.193541 -0.035000 0.069390 0.006316	-0.731052
-0.193510 -0.035000 0.069394 0.006320	-0.730877
-0.193423 -0.035000 0.069405 0.006318	-0.730010
-0.191680 -0.035000 0.069628 0.006252	-0.713220
-0.190367 -0.035000 0.069786 0.006164	-0.702095
-0.189986 -0.035000 0.069832 0.006154	-0.698567
-0.189815 -0.035000 0.069852 0.006116	-0.697129
-0.188601 -0.035000 0.069987 0.006151	-0.690203
-0.187269 -0.035000 0.070136 0.006149	-0.682100
-0.186702 -0.035000 0.070194 0.005992	-0.678545
-0.185171 -0.035000 0.070350 0.005894	-0.666071
-0.183658 -0.035000 0.070496 0.005927	-0.650174
-0.182823 -0.035000 0.070575 0.005884	-0.642757
-0.181202 -0.035000 0.070720 0.005745	-0.632062
-0.180017 -0.035000 0.070822 0.005596	-0.624242
-0.179203 -0.035000 0.070889 0.005685	-0.620153
-0.176917 -0.035000 0.071066 0.005522	-0.605037
-0.176877 -0.035000 0.071069 0.005526	-0.604734
-0.174912 -0.035000 0.071207 0.005740	-0.592502
-0.173968 -0.035000 0.071269 0.005655	-0.587132
-0.172187 -0.035000 0.071382 0.005527	-0.572147
-0.171861 -0.035000 0.071402 0.005506	-0.569254
-0.171683 -0.035000 0.071412 0.005522	-0.568230
-0.169787 -0.035000 0.071521 0.006025	-0.555052
-0.168772 -0.035000 0.071572 0.005786	-0.552704
-0.167387 -0.035000 0.071645 0.005567	-0.546257
-0.166279 -0.035000 0.071693 0.005436	-0.538454
-0.164589 -0.035000 0.071768 0.005368	-0.530933
-0.164183 -0.035000 0.071784 0.005409	-0.528462
-0.161694 -0.035000 0.071878 0.004872	-0.511900
-0.160781 -0.035000 0.071906 0.004840	-0.505014
-0.158068 -0.035000 0.071991 0.004752	-0.484259
-0.157431 -0.035000 0.072010 0.004695	-0.480175
-0.155379 -0.035000 0.072057 0.004905	-0.471910
-0.154365 -0.035000 0.072080 0.004991	-0.467038
-0.153987 -0.035000 0.072087 0.004949	-0.465052
-0.151583 -0.035000 0.072125 0.004337	-0.449614
-0.148878 -0.035000 0.072156 0.004108	-0.435394
-0.148358 -0.035000 0.072162 0.004035	-0.432103
-0.147732 -0.035000 0.072166 0.004119	-0.428376
-0.145467 -0.035000 0.072179 0.004348	-0.414679
-0.143565 -0.035000 0.072180 0.004201	-0.407673
-0.142962 -0.035000 0.072180 0.004109	-0.404754
-0.142336 -0.035000 0.072178 0.004133	-0.401380
-0.140381 -0.035000 0.072169 0.004155	-0.388745
-0.138160 -0.035000 0.072149 0.004077	-0.374925
-0.137328 -0.035000 0.072141 0.003980	-0.369507
-0.136653 -0.035000 0.072133 0.004025	-0.365782
-0.134485 -0.035000 0.072103 0.003991	-0.353119
-0.131832 -0.035000 0.072056 0.003922	-0.339953
-0.131492 -0.035000 0.072050 0.003930	-0.337992
-0.131099 -0.035000 0.072042 0.003942	-0.336235
-0.128661 -0.035000 0.071987 0.003991	-0.323984
-0.128558 -0.035000 0.071985 0.003990	-0.323118
-0.128015 -0.035000 0.071971 0.003945	-0.320356
-0.126515 -0.035000 0.071931 0.003837	-0.312158
-0.124867 -0.035000 0.071882 0.003677	-0.304690
-0.123720 -0.035000 0.071848 0.003557	-0.298778
-0.123566 -0.035000 0.071843 0.003538	-0.297933
-0.120800 -0.035000 0.071749 0.003391	-0.280802
-0.120221 -0.035000 0.071728 0.003304	-0.277067
-0.118862 -0.035000 0.071676 0.003307	-0.272154
-0.117182 -0.035000 0.071611 0.003229	-0.263618
-0.116284 -0.035000 0.071574 0.003250	-0.260675
-0.114260 -0.035000 0.071488 0.003217	-0.248710
-0.112616 -0.035000 0.071413 0.003177	-0.240333
-0.111323 -0.035000 0.071353 0.003098	-0.230351
-0.108906 -0.035000 0.071235 0.003128	-0.217326
-0.108348 -0.035000 0.071208 0.003116	-0.213371
-0.108027 -0.035000 0.071191 0.003111	-0.212007
-0.105493 -0.035000 0.071059 0.002830	-0.195410
-0.103578 -0.035000 0.070953 0.002907	-0.187986
-0.102818 -0.035000 0.070910 0.002922	-0.183628
-0.102286 -0.035000 0.070879 0.002906	-0.181955
-0.100185 -0.035000 0.070755 0.002848	-0.174382
-0.098993 -0.035000 0.070680 0.002776	-0.170042
-0.097738 -0.035000 0.070600 0.002607	-0.163854
-0.095735 -0.035000 0.070467 0.002557	-0.158203
-0.095031 -0.035000 0.070420 0.002511	-0.154522
-0.094025 -0.035000 0.070350 0.002481	-0.149393
-0.091869 -0.035000 0.070200 0.002350	-0.135870
-0.090908 -0.035000 0.070131 0.002317	-0.130703
-0.088241 -0.035000 0.069936 0.002140	-0.115817
-0.086810 -0.035000 0.069828 0.002161	-0.108747
-0.084815 -0.035000 0.069676 0.002092	-0.100289
-0.083061 -0.035000 0.069539 0.001970	-0.092093
-0.081200 -0.035000 0.069391 0.001890	-0.085376
-0.079523 -0.035000 0.069254 0.001809	-0.078816
-0.077726 -0.035000 0.069104 0.001750	-0.074337
-0.076456 -0.035000 0.068996 0.001753	-0.070297
-0.074179 -0.035000 0.068797 0.001578	-0.065507
-0.073460 -0.035000 0.068734 0.001547	-0.063404
-0.071441 -0.035000 0.068549 0.001416	-0.057880
-0.070085 -0.035000 0.068426 0.001316	-0.055454
-0.069227 -0.035000 0.068346 0.001303	-0.053602
-0.067219 -0.035000 0.068157 0.001241	-0.048898
-0.065726 -0.035000 0.068013 0.001094	-0.044802
-0.063369 -0.035000 0.067783 0.000976	-0.040424
-0.063086 -0.035000 0.067756 0.000945	-0.040004
-0.061494 -0.035000 0.067598 0.000802	-0.038329
-0.061107 -0.035000 0.067560 0.000762	-0.037972
-0.059529 -0.035000 0.067402 0.000637	-0.035729
-0.059102 -0.035000 0.067359 0.000607	-0.035137
-0.057565 -0.035000 0.067203 0.000428	-0.033333
-0.056173 -0.035000 0.067060 0.000284	-0.031229
-0.055792 -0.035000 0.067021 0.000256	-0.030723
-0.051084 -0.035000 0.066525 0.000041	-0.026142
-0.050729 -0.035000 0.066487 0.000027	-0.025800
-0.050400 -0.035000 0.066450 0.000016	-0.025558
-0.046855 -0.035000 0.066062 -0.000092	-0.022902
-0.046332 -0.035000 0.066002 -0.000116	-0.022535
-0.045041 -0.035000 0.065855 -0.000146	-0.021750
-0.042970 -0.035000 0.065617 -0.000175	-0.020552
-0.042011 -0.035000 0.065510 -0.000201	-0.019830
-0.038572 -0.035000 0.065101 -0.000306	-0.017661
-0.035335 -0.035000 0.064720 -0.000369	-0.016098
-0.032211 -0.035000 0.064334 -0.000414	-0.013960
-0.027946 -0.035000 0.063809 -0.000421	-0.011758
-0.024542 -0.035000 0.063371 -0.000446	-0.010279
-0.019788 -0.035000 0.062762 -0.000529	-0.007822
-0.018904 -0.035000 0.062644 -0.000534	-0.007519
-0.014175 -0.035000 0.062015 -0.000544	-0.005851
-0.010141 -0.035000 0.061464 -0.000582	-0.004504
-0.008770 -0.035000 0.061278 -0.000581	-0.003885
-0.003077 -0.035000 0.060472 -0.000581	-0.001076
-0.001801 -0.035000 0.060292 -0.000579	-0.000630
0.001860 -0.035000 0.059761 -0.000591	0.000900
0.005167 -0.035000 0.059278 -0.000595	0.002219
0.007125 -0.035000 0.058984 -0.000592	0.002825
0.013955 -0.035000 0.057959 -0.000554	0.004262
0.015627 -0.035000 0.057701 -0.000552	0.004561
0.017904 -0.035000 0.057346 -0.000546	0.004961
0.023334 -0.035000 0.056502 -0.000535	0.006385
0.025020 -0.035000 0.056237 -0.000534	0.006616
0.029533 -0.035000 0.055514 -0.000524	0.007786
0.032026 -0.035000 0.055115 -0.000522	0.008463
0.035481 -0.035000 0.054547 -0.000518	0.009936
0.038629 -0.035000 0.054031 -0.000513	0.011364
0.039151 -0.035000 0.053944 -0.000514	0.011467
0.044890 -0.035000 0.052977 -0.000507	0.012508
0.050105 -0.035000 0.052084 -0.000492	0.013374
0.051040 -0.035000 0.051923 -0.000488	0.013583
0.052780 -0.035000 0.051619 -0.000486	0.014033
0.058869 -0.035000 0.050557 -0.000473	0.015675
0.060077 -0.035000 0.050343 -0.000468	0.015828
0.065852 -0.035000 0.049315 -0.000469	0.016512
0.069644 -0.035000 0.048630 -0.000459	0.016910
0.072762 -0.035000 0.048064 -0.000446	0.017098
0.076651 -0.035000 0.047348 -0.000440	0.017465
0.079578 -0.035000 0.046810 -0.000436	0.017873
0.081066 -0.035000 0.046532 -0.000436	0.018175
0.087365 -0.035000 0.045355 -0.000429	0.019013
0.091027 -0.035000 0.044662 -0.000427	0.019495
0.094876 -0.035000 0.043928 -0.000420	0.020299
0.098636 -0.035000 0.043203 -0.000410	0.021100
0.101870 -0.035000 0.042575 -0.000408	0.022153
0.105839 -0.035000 0.041795 -0.000400	0.022975
0.108842 -0.035000 0.041201 -0.000394	0.023533
0.113847 -0.035000 0.040203 -0.000390	0.023922
0.116057 -0.035000 0.039760 -0.000389	0.024225
0.124280 -0.035000 0.038096 -0.000379	0.024901
0.124544 -0.035000 0.038042 -0.000379	0.024918
0.126495 -0.035000 0.037642 -0.000379	0.025081
0.133644 -0.035000 0.036173 -0.000378	0.025820
0.134762 -0.035000 0.035941 -0.000379	0.025875
0.141787 -0.035000 0.034478 -0.000367	0.026177
0.147208 -0.035000 0.033337 -0.000350	0.026771
0.149017 -0.035000 0.032956 -0.000342	0.026888
0.155069 -0.035000 0.031668 -0.000337	0.027684
0.156517 -0.035000 0.031360 -0.000336	0.027880
0.157112 -0.035000 0.031232 -0.000336	0.027924
0.163719 -0.035000 0.029807 -0.000336	0.028623
0.166603 -0.035000 0.029181 -0.000337	0.028938
0.170882 -0.035000 0.028243 -0.000332	0.029275
0.174287 -0.035000 0.027495 -0.000324	0.029726
0.181354 -0.035000 0.025922 -0.000316	0.030271
0.184222 -0.035000 0.025285 -0.000313	0.030633
0.189520 -0.035000 0.024090 -0.000310	0.031244
0.194509 -0.035000 0.022964 -0.000307	0.031889
0.197271 -0.035000 0.022333 -0.000303	0.032119
0.204519 -0.035000 0.020676 -0.000289	0.032753
0.211619 -0.035000 0.019032 -0.000280	0.033616
0.216583 -0.035000 0.017882 -0.000275	0.034243
0.223373 -0.035000 0.016290 -0.000269	0.034926
0.227048 -0.035000 0.015426 -0.000266	0.035277
0.234570 -0.035000 0.013642 -0.000266	0.035813
0.237947 -0.035000 0.012841 -0.000266	0.036039
0.240461 -0.035000 0.012238 -0.000265	0.036352
0.248238 -0.035000 0.010373 -0.000261	0.037227
0.251540 -0.035000 0.009575 -0.000262	0.037651
0.258352 -0.035000 0.007923 -0.000257	0.038693
0.262890 -0.035000 0.006812 -0.000247	0.039277
0.267530 -0.035000 0.005672 -0.000242	0.039694
0.275036 -0.035000 0.003814 -0.000223	0.040183
0.275550 -0.035000 0.003687 -0.000222	0.040223
0.285203 -0.035000 0.001279 -0.000217	0.040870
0.290271 -0.035000 0.000007 -0.000216	0.041165
0.297494 -0.035000 -0.001814 -0.000207	0.041548
0.303795 -0.035000 -0.003412 -0.000197	0.041929
0.311551 -0.035000 -0.005394 -0.000186	0.042225
0.321143 -0.035000 -0.007843 -0.000185	0.042740
0.323955 -0.035000 -0.008559 -0.000184	0.042883
0.326802 -0.035000 -0.009292 -0.000180	0.042985
0.334306 -0.035000 -0.011233 -0.000171	0.043267
0.339797 -0.035000 -0.012666 -0.000166	0.043548
0.346310 -0.035000 -0.014361 -0.000170	0.043931
0.357625 -0.035000 -0.017336 -0.000175	0.044523
0.358829 -0.035000 -0.017652 -0.000175	0.044561
0.360477 -0.035000 -0.018090 -0.000173	0.044582
0.374045 -0.035000 -0.021699 -0.000160	0.044580
0.380028 -0.035000 -0.023309 -0.000163	0.044486
0.387855 -0.035000 -0.025411 -0.000162	0.044479
0.395358 -0.035000 -0.027444 -0.000165	0.044506
0.400955 -0.035000 -0.028966 -0.000160	0.044462
0.409158 -0.035000 -0.031206 -0.000164	0.044308
0.413848 -0.035000 -0.032491 -0.000174	0.044146
0.424281 -0.035000 -0.035362 -0.000193	0.043624
0.432362 -0.035000 -0.037599 -0.000196	0.043157
0.441064 -0.035000 -0.040013 -0.000193	0.042494
0.447817 -0.035000 -0.041899 -0.000195	0.041945
0.454060 -0.035000 -0.043641 -0.000198	0.041201
0.463382 -0.035000 -0.046265 -0.000211	0.040691
0.466522 -0.035000 -0.047146 -0.000221	0.040446
0.469277 -0.035000 -0.047924 -0.000220	0.040412
0.482116 -0.035000 -0.051578 -0.000239	0.039483
0.485682 -0.035000 -0.052595 -0.000237	0.039257
0.490451 -0.035000 -0.053964 -0.000238	0.038848
0.500703 -0.035000 -0.056911 -0.000242	0.038034
0.510082 -0.035000 -0.059624 -0.000250	0.037540
0.515024 -0.035000 -0.061057 -0.000251	0.037247
0.528736 -0.035000 -0.065054 -0.000269	0.036419
0.528780 -0.035000 -0.065067 -0.000269	0.036415
0.528914 -0.035000 -0.065106 -0.000269	0.036407
0.541489 -0.035000 -0.068800 -0.000290	0.035491
0.544198 -0.035000 -0.069600 -0.000295	0.035452
0.553596 -0.035000 -0.072386 -0.000315	0.035157
0.557108 -0.035000 -0.073432 -0.000321	0.035185
0.565940 -0.035000 -0.076071 -0.000325	0.034964
0.571504 -0.035000 -0.077738 -0.000327	0.034796
0.583363 -0.035000 -0.081307 -0.000334	0.034943
0.583753 -0.035000 -0.081424 -0.000335	0.034947
0.584532 -0.035000 -0.081660 -0.000336	0.035006
0.594663 -0.035000 -0.084726 -0.000355	0.035628
0.598760 -0.035000 -0.085972 -0.000364	0.035825
0.606472 -0.035000 -0.088320 -0.000379	0.036388
0.612266 -0.035000 -0.090093 -0.000376	0.036923
0.619119 -0.035000 -0.092195 -0.000361	0.038122
0.624721 -0.035000 -0.093920 -0.000360	0.039257
0.630858 -0.035000 -0.095815 -0.000360	0.041016
0.637490 -0.035000 -0.097873 -0.000382	0.043841
0.641007 -0.035000 -0.098967 -0.000387	0.045548
0.646963 -0.035000 -0.100846 -0.000374	0.048777
0.650587 -0.035000 -0.101987 -0.000367	0.050715
0.652800 -0.035000 -0.102688 -0.000362	0.051711
0.663286 -0.035000 -0.106020 -0.000330	0.056481
0.669048 -0.035000 -0.107859 -0.000312	0.059288
0.680671 -0.035000 -0.111559 -0.000283	0.066111
0.690155 -0.035000 -0.114592 -0.000268	0.071935
0.699558 -0.035000 -0.117601 -0.000235	0.078839
0.711221 -0.035000 -0.121349 -0.000186	0.086108
0.713132 -0.035000 -0.121965 -0.000180	0.087326
0.713989 -0.035000 -0.122242 -0.000167	0.087659
0.717387 -0.035000 -0.123341 -0.000125	0.088731
0.721012 -0.035000 -0.124513 -0.000081	0.089961
0.721915 -0.035000 -0.124805 -0.000071	0.090192
0.728242 -0.035000 -0.126859 0.000046	0.090298
0.728405 -0.035000 -0.126912 0.000050	0.090306
0.730725 -0.035000 -0.127667 0.000136	0.088406
0.732787 -0.035000 -0.128338 0.000210	0.086643
0.733031 -0.035000 -0.128418 0.000218	0.086303
0.735412 -0.035000 -0.129194 0.000279	0.082435
0.735823 -0.035000 -0.129328 0.000296	0.080763
0.736972 -0.035000 -0.129703 0.000314	0.072573
0.737341 -0.035000 -0.129823 0.000315	0.070224
0.737908 -0.035000 -0.130008 0.000291	0.063482
0.738026 -0.035000 -0.130047 0.000285	0.062459
0.738210 -0.035000 -0.130107 0.000288	0.065812
0.738349 -0.035000 -0.130152 0.000288	0.067653
0.738406 -0.035000 -0.130171 0.000323	0.055480
0.738606 -0.035000 -0.130236 0.000189	0.002695
0.738509 -0.035000 -0.130233 0.000851	0.030425
0.738310 -0.035000 -0.130226 0.001076	0.048280
0.738097 -0.035000 -0.130219 0.001474	0.080789
0.737496 -0.035000 -0.130199 0.001669	0.125305
0.737483 -0.035000 -0.130199 0.001676	0.125449
0.736746 -0.035000 -0.130174 0.002141	0.125384
0.735323 -0.035000 -0.130126 0.002610	0.126706
0.735302 -0.035000 -0.130125 0.002611	0.126758
0.734994 -0.035000 -0.130115 0.002607	0.127343
0.731981 -0.035000 -0.130012 0.002536	0.132605
0.731228 -0.035000 -0.129987 0.002536	0.133742
0.725135 -0.035000 -0.129773 0.002370	0.145985
0.722030 -0.035000 -0.129666 0.002256	0.149791
0.710800 -0.035000 -0.129256 0.002239	0.158845
0.707582 -0.035000 -0.129138 0.002190	0.161289
0.705766 -0.035000 -0.129067 0.002187	0.161808
0.687174 -0.035000 -0.128345 0.002121	0.169068
0.677153 -0.035000 -0.127952 0.002146	0.169746
0.665759 -0.035000 -0.127483 0.002192	0.169705
0.657069 -0.035000 -0.127130 0.002241	0.169593
0.648194 -0.035000 -0.126762 0.002392	0.168484
0.639000 -0.035000 -0.126356 0.002423	0.171633
0.634165 -0.035000 -0.126143 0.002417	0.174108
0.627550 -0.035000 -0.125821 0.002329	0.177724
0.619545 -0.035000 -0.125431 0.002345	0.183440
0.615131 -0.035000 -0.125208 0.002287	0.185153
0.600730 -0.035000 -0.124464 0.002244	0.187851
0.595761 -0.035000 -0.124201 0.002185	0.188534
0.582100 -0.035000 -0.123457 0.002188	0.191494
0.573165 -0.035000 -0.122958 0.002084	0.193159
0.563054 -0.035000 -0.122382 0.001819	0.194757
0.547419 -0.035000 -0.121466 0.001754	0.198093
0.545884 -0.035000 -0.121376 0.001753	0.198428
0.545252 -0.035000 -0.121339 0.001761	0.198455
0.528903 -0.035000 -0.120333 0.002462	0.197661
0.528242 -0.035000 -0.120292 0.002460	0.197688
0.522359 -0.035000 -0.119914 0.002421	0.197961
0.514516 -0.035000 -0.119410 0.002320	0.198235
0.512723 -0.035000 -0.119292 0.002345	0.199006
0.500531 -0.035000 -0.118486 0.002329	0.203475
0.492561 -0.035000 -0.117946 0.002554	0.204906
0.486576 -0.035000 -0.117539 0.002623	0.205697
0.476298 -0.035000 -0.116823 0.002487	0.204840
0.471155 -0.035000 -0.116461 0.002525	0.206390
0.458762 -0.035000 -0.115568 0.002296	0.210858
0.457366 -0.035000 -0.115468 0.002262	0.211383
0.455585 -0.035000 -0.115335 0.002267	0.211888
0.442373 -0.035000 -0.114348 0.002196	0.214449
0.433349 -0.035000 -0.113652 0.002299	0.213250
0.426663 -0.035000 -0.113136 0.002322	0.213045
0.421037 -0.035000 -0.112694 0.002215	0.213820
0.412199 -0.035000 -0.111996 0.001801	0.214545
0.401137 -0.035000 -0.111105 0.001708	0.214987
0.395153 -0.035000 -0.110618 0.001744	0.216961
0.380253 -0.035000 -0.109377 0.001885	0.218432
0.376485 -0.035000 -0.109061 0.002006	0.219736
0.372267 -0.035000 -0.108696 0.002017	0.221642
0.359622 -0.035000 -0.107605 0.002042	0.227463
0.348666 -0.035000 -0.106629 0.002591	0.228586
0.346547 -0.035000 -0.106440 0.002612	0.228776
0.334157 -0.035000 -0.105306 0.002643	0.230905
0.333654 -0.035000 -0.105259 0.002643	0.231092
0.319945 -0.035000 -0.103972 0.002364	0.235333
0.317088 -0.035000 -0.103697 0.002328	0.235922
0.304336 -0.035000 -0.102463 0.002463	0.237745
0.300830 -0.035000 -0.102117 0.002454	0.238312
0.284526 -0.035000 -0.100485 0.002094	0.240783
0.279771 -0.035000 -0.100003 0.002121	0.241089
0.267901 -0.035000 -0.098782 0.002159	0.241407
0.266171 -0.035000 -0.098601 0.002171	0.241897
0.256053 -0.035000 -0.097536 0.002310	0.245222
0.248450 -0.035000 -0.096720 0.002448	0.245893
0.245129 -0.035000 -0.096361 0.002364	0.247144
0.240751 -0.035000 -0.095876 0.002256	0.248120
0.233921 -0.035000 -0.095123 0.002163	0.250255
0.229373 -0.035000 -0.094609 0.002211	0.251842
0.221316 -0.035000 -0.093692 0.002557	0.257041
0.215560 -0.035000 -0.093025 0.002495	0.259523
0.208690 -0.035000 -0.092223 0.002475	0.261696
0.202758 -0.035000 -0.091520 0.002545	0.264399
0.194941 -0.035000 -0.090581 0.002445	0.265174
0.191121 -0.035000 -0.090116 0.002369	0.265925
0.182340 -0.035000 -0.089034 0.002368	0.269406
0.172358 -0.035000 -0.087777 0.002571	0.272374
0.170642 -0.035000 -0.087562 0.002528	0.273017
0.169514 -0.035000 -0.087417 0.002529	0.273550
0.159655 -0.035000 -0.086142 0.002171	0.277674
0.156314 -0.035000 -0.085701 0.002370	0.278648
0.147962 -0.035000 -0.084589 0.002410	0.281799
0.139279 -0.035000 -0.083402 0.002520	0.287763
0.137482 -0.035000 -0.083157 0.002496	0.288385
0.135936 -0.035000 -0.082941 0.002476	0.289034
0.126139 -0.035000 -0.081564 0.002380	0.293008
0.118435 -0.035000 -0.080457 0.002356	0.294968
0.115358 -0.035000 -0.080013 0.002388	0.295222
0.103513 -0.035000 -0.078269 0.002433	0.299283
0.103338 -0.035000 -0.078243 0.002433	0.299347
0.092763 -0.035000 -0.076645 0.002410	0.300103
0.092750 -0.035000 -0.076644 0.002409	0.300109
0.092703 -0.035000 -0.076636 0.002411	0.300146
0.083117 -0.035000 -0.075155 0.002680	0.307618
0.076316 -0.035000 -0.074077 0.002911	0.312598
0.074671 -0.035000 -0.073816 0.002957	0.313669
0.073821 -0.035000 -0.073678 0.002941	0.314095
0.065973 -0.035000 -0.072400 0.002668	0.319011
0.058609 -0.035000 -0.071177 0.002577	0.323097
0.058569 -0.035000 -0.071170 0.002576	0.323121
0.058506 -0.035000 -0.071160 0.002575	0.323143
0.049669 -0.035000 -0.069664 0.002556	0.326283
0.042660 -0.035000 -0.068450 0.002559	0.331507
0.039111 -0.035000 -0.067833 0.002613	0.333709
0.036713 -0.035000 -0.067407 0.002641	0.334580
0.028713 -0.035000 -0.065979 0.002549	0.338182
0.024884 -0.035000 -0.065284 0.002583	0.339781
0.020264 -0.035000 -0.064437 0.002706	0.343024
0.015127 -0.035000 -0.063478 0.002641	0.346969
0.012747 -0.035000 -0.063029 0.002583	0.348664
0.006688 -0.035000 -0.061870 0.002442	0.352329
0.005833 -0.035000 -0.061704 0.002454	0.352655
-0.000396 -0.035000 -0.060488 0.002545	0.357323
-0.005366 -0.035000 -0.059502 0.002493	0.360499
-0.008574 -0.035000 -0.058862 0.002560	0.362370
-0.015550 -0.035000 -0.057442 0.002338	0.366236
-0.016060 -0.035000 -0.057339 0.002325	0.366556
-0.016237 -0.035000 -0.057302 0.002329	0.366738
-0.017102 -0.035000 -0.057122 0.002320	0.367580
-0.023043 -0.035000 -0.055888 0.002324	0.373616
-0.024689 -0.035000 -0.055539 0.002381	0.375058
-0.028532 -0.035000 -0.054725 0.002550	0.378263
-0.034393 -0.035000 -0.053457 0.002499	0.383719
-0.035380 -0.035000 -0.053243 0.002477	0.384586
-0.036081 -0.035000 -0.053087 0.002470	0.385296
-0.043273 -0.035000 -0.051491 0.002421	0.391446
-0.048690 -0.035000 -0.050262 0.002396	0.393562
-0.050230 -0.035000 -0.049913 0.002389	0.394462
-0.050801 -0.035000 -0.049781 0.002401	0.394751
-0.057035 -0.035000 -0.048335 0.002511	0.401141
-0.062798 -0.035000 -0.046971 0.002398	0.405894
-0.063597 -0.035000 -0.046781 0.002400	0.406762
-0.064772 -0.035000 -0.046496 0.002376	0.408727
-0.069974 -0.035000 -0.045233 0.002340	0.417318
-0.072866 -0.035000 -0.044514 0.002394	0.420212
-0.076861 -0.035000 -0.043517 0.002524	0.424041
-0.083208 -0.035000 -0.041900 0.002451	0.428865
-0.083750 -0.035000 -0.041762 0.002444	0.429295
-0.085496 -0.035000 -0.041308 0.002443	0.431743
-0.089825 -0.035000 -0.040181 0.002419	0.438427
-0.090890 -0.035000 -0.039898 0.002414	0.440163
-0.095772 -0.035000 -0.038595 0.002444	0.449200
-0.097917 -0.035000 -0.038013 0.002531	0.451486
-0.101923 -0.035000 -0.036912 0.002617	0.455942
-0.103678 -0.035000 -0.036424 0.002604	0.457914
-0.107986 -0.035000 -0.035214 0.002546	0.462141
-0.108963 -0.035000 -0.034937 0.002551	0.463378
-0.113494 -0.035000 -0.033638 0.002483	0.470903
-0.114221 -0.035000 -0.033429 0.002468	0.472042