VARIABLES= iterations rms_res_mf1 rms_res_mf2 rms_res_mf3 rms_res_mf4 rms_res_mf5 rms_res_trb1 CL CD CDv CM
ZONE T = "USM3D-ME, Pointwise_1.5"
1  -999  -999  -999  -999  1.978540E-07  4.648913E-02  -9.887190E-03  2.679875E-01  2.679875E-01  4.572256E-05
2  -999  -999  -999  -999  1.582635E-07  1.124967E-02  6.289689E-01  5.748435E-01  2.672241E-01  -1.637032E-01
3  -999  -999  -999  -999  1.121266E-07  2.916099E-03  1.359775E+00  9.439353E-01  2.657519E-01  -3.472719E-01
4  -999  -999  -999  -999  7.943861E-08  7.670803E-04  1.802178E+00  1.175044E+00  2.629155E-01  -4.575800E-01
5  -999  -999  -999  -999  5.959039E-08  1.718952E-04  1.819980E+00  1.178630E+00  2.574387E-01  -4.628677E-01
6  -999  -999  -999  -999  4.425655E-08  4.724381E-05  1.734853E+00  1.121481E+00  2.470823E-01  -4.413365E-01
7  -999  -999  -999  -999  3.404762E-08  1.392544E-05  1.702471E+00  1.073526E+00  2.285980E-01  -4.331655E-01
8  -999  -999  -999  -999  2.688111E-08  3.901713E-06  1.619407E+00  9.400851E-01  1.988052E-01  -4.122950E-01
9  -999  -999  -999  -999  2.081651E-08  1.057549E-06  1.374363E+00  7.018282E-01  1.580504E-01  -3.252630E-01
10  -999  -999  -999  -999  1.556845E-08  3.074188E-07  1.281860E+00  4.590743E-01  1.138833E-01  -2.566288E-01
11  -999  -999  -999  -999  1.699508E-08  1.540513E-07  1.002537E+00  2.764936E-01  7.979630E-02  -1.335070E-01
12  -999  -999  -999  -999  1.288927E-08  9.320532E-08  9.545082E-01  2.478196E-01  7.255359E-02  -1.190140E-01
13  -999  -999  -999  -999  1.315343E-08  8.264831E-08  7.652351E-01  1.895645E-01  6.345878E-02  -5.883746E-02
14  -999  -999  -999  -999  1.463063E-08  9.090310E-08  5.113962E-01  1.381261E-01  5.697932E-02  1.416301E-03
15  -999  -999  -999  -999  1.508530E-08  9.262920E-08  3.521507E-01  9.517898E-02  5.083911E-02  2.618410E-02
16  -999  -999  -999  -999  1.045306E-08  7.659411E-08  2.689793E-01  7.291459E-02  4.722199E-02  4.281243E-02
17  -999  -999  -999  -999  9.606823E-09  8.004259E-08  1.729372E-01  4.452061E-02  4.311823E-02  5.238999E-02
18  -999  -999  -999  -999  7.434335E-09  8.965401E-08  2.118143E-01  2.665645E-02  3.881170E-02  3.310232E-02
19  -999  -999  -999  -999  5.366554E-09  7.571768E-08  2.200372E-01  2.109139E-02  3.765642E-02  2.932688E-02
20  -999  -999  -999  -999  4.131535E-09  7.653633E-08  2.595277E-01  1.560017E-02  3.581500E-02  1.772341E-02
21  -999  -999  -999  -999  2.942520E-09  8.443774E-08  3.194256E-01  1.513095E-02  3.326693E-02  4.363379E-03
22  -999  -999  -999  -999  2.491235E-09  9.921328E-08  3.241838E-01  2.599224E-02  3.084597E-02  2.408534E-03
23  -999  -999  -999  -999  2.295702E-09  8.571403E-08  3.283649E-01  2.886205E-02  3.007853E-02  1.427623E-03
24  -999  -999  -999  -999  3.151859E-09  9.038038E-08  3.224179E-01  3.683605E-02  2.882068E-02  1.907216E-03
25  -999  -999  -999  -999  7.262590E-09  1.025076E-07  3.197834E-01  5.038690E-02  2.718178E-02  1.004213E-03
26  -999  -999  -999  -999  4.659164E-09  9.835469E-08  3.200460E-01  5.218516E-02  2.685909E-02  9.495441E-04
27  -999  -999  -999  -999  5.039009E-09  1.026333E-07  3.226465E-01  5.710895E-02  2.630754E-02  -2.144232E-04
28  -999  -999  -999  -999  7.576950E-09  1.151285E-07  3.291914E-01  6.049234E-02  2.547316E-02  -1.463247E-03
29  -999  -999  -999  -999  7.599435E-09  1.153169E-07  3.291186E-01  6.043320E-02  2.545515E-02  -1.439211E-03
30  -999  -999  -999  -999  4.621724E-09  1.148284E-07  3.293039E-01  6.043880E-02  2.531491E-02  -1.356786E-03
31  -999  -999  -999  -999  4.216084E-09  1.188300E-07  3.310355E-01  6.060654E-02  2.506405E-02  -1.637853E-03
32  -999  -999  -999  -999  4.845226E-09  1.288333E-07  3.290978E-01  5.794795E-02  2.464903E-02  -8.405881E-04
33  -999  -999  -999  -999  4.348913E-09  1.497647E-07  3.191872E-01  5.319327E-02  2.408996E-02  9.650007E-04
34  -999  -999  -999  -999  5.330406E-09  1.854992E-07  3.146245E-01  5.147537E-02  2.354786E-02  1.392825E-03
35  -999  -999  -999  -999  4.207444E-09  1.839809E-07  3.132554E-01  5.081325E-02  2.349868E-02  1.510727E-03
36  -999  -999  -999  -999  5.251305E-09  2.033173E-07  3.105111E-01  5.066370E-02  2.333915E-02  1.804378E-03
37  -999  -999  -999  -999  7.691225E-09  2.629515E-07  3.108082E-01  5.108765E-02  2.287749E-02  1.620884E-03
38  -999  -999  -999  -999  9.005996E-09  2.991663E-07  3.101200E-01  5.097996E-02  2.226790E-02  1.855119E-03
39  -999  -999  -999  -999  9.402741E-09  3.581638E-07  3.095719E-01  5.022291E-02  2.182077E-02  1.974917E-03
40  -999  -999  -999  -999  7.327147E-09  3.698503E-07  3.094699E-01  4.870564E-02  2.157658E-02  1.770609E-03
41  -999  -999  -999  -999  6.834015E-09  4.320607E-07  3.080124E-01  4.885550E-02  2.095421E-02  2.120907E-03
42  -999  -999  -999  -999  5.908426E-09  5.017686E-07  3.060702E-01  4.719750E-02  2.023649E-02  2.287818E-03
43  -999  -999  -999  -999  3.689629E-09  4.837845E-07  3.041804E-01  4.648753E-02  1.983119E-02  2.537864E-03
44  -999  -999  -999  -999  2.319193E-09  4.997454E-07  3.016735E-01  4.522880E-02  1.910492E-02  2.620992E-03
45  -999  -999  -999  -999  3.068716E-09  4.948632E-07  2.973182E-01  4.405666E-02  1.835021E-02  2.673244E-03
46  -999  -999  -999  -999  4.179839E-09  4.776977E-07  2.940546E-01  4.379536E-02  1.764644E-02  2.569995E-03
47  -999  -999  -999  -999  3.050938E-09  3.998714E-07  2.929142E-01  4.351847E-02  1.724554E-02  2.547190E-03
48  -999  -999  -999  -999  3.142866E-09  3.927936E-07  2.888520E-01  4.204899E-02  1.650367E-02  2.726201E-03
49  -999  -999  -999  -999  3.756092E-09  4.126943E-07  2.855198E-01  4.231564E-02  1.585510E-02  2.571285E-03
50  -999  -999  -999  -999  2.383216E-09  3.739502E-07  2.841547E-01  4.183530E-02  1.552355E-02  2.592465E-03
51  -999  -999  -999  -999  2.459551E-09  3.785542E-07  2.794330E-01  4.142593E-02  1.495779E-02  2.708318E-03
52  -999  -999  -999  -999  2.970580E-09  4.026369E-07  2.776966E-01  4.167188E-02  1.442029E-02  2.554079E-03
53  -999  -999  -999  -999  1.997574E-09  3.736000E-07  2.773910E-01  4.143761E-02  1.423824E-02  2.573143E-03
54  -999  -999  -999  -999  2.188970E-09  3.840415E-07  2.743674E-01  4.064154E-02  1.386188E-02  2.838860E-03
55  -999  -999  -999  -999  2.470644E-09  4.210671E-07  2.719899E-01  4.026178E-02  1.343434E-02  3.068745E-03
56  -999  -999  -999  -999  1.745396E-09  4.008849E-07  2.711677E-01  4.015170E-02  1.333345E-02  3.060284E-03
57  -999  -999  -999  -999  1.652076E-09  4.094064E-07  2.701801E-01  3.965672E-02  1.311132E-02  3.108313E-03
58  -999  -999  -999  -999  1.806627E-09  4.509970E-07  2.686119E-01  3.984130E-02  1.279566E-02  3.125948E-03
59  -999  -999  -999  -999  1.841649E-09  5.197556E-07  2.663832E-01  3.912366E-02  1.252682E-02  3.307050E-03
60  -999  -999  -999  -999  1.257082E-09  4.776555E-07  2.657832E-01  3.917763E-02  1.241558E-02  3.269758E-03
61  -999  -999  -999  -999  1.265297E-09  4.952412E-07  2.634219E-01  3.829762E-02  1.214596E-02  3.454824E-03
62  -999  -999  -999  -999  1.388601E-09  5.630246E-07  2.619424E-01  3.789039E-02  1.186717E-02  3.465833E-03
63  -999  -999  -999  -999  1.661919E-09  6.173153E-07  2.605094E-01  3.819777E-02  1.170198E-02  3.480512E-03
64  -999  -999  -999  -999  1.133405E-09  5.407380E-07  2.600297E-01  3.836936E-02  1.159025E-02  3.447797E-03
65  -999  -999  -999  -999  1.235876E-09  5.667663E-07  2.571029E-01  3.728764E-02  1.131995E-02  3.619958E-03
66  -999  -999  -999  -999  1.520199E-09  6.364596E-07  2.562574E-01  3.786830E-02  1.111112E-02  3.463361E-03
67  -999  -999  -999  -999  9.890142E-10  5.331074E-07  2.565284E-01  3.797751E-02  1.105000E-02  3.383115E-03
68  -999  -999  -999  -999  1.033264E-09  5.097099E-07  2.540857E-01  3.721398E-02  1.091730E-02  3.578284E-03
69  -999  -999  -999  -999  1.250468E-09  5.619319E-07  2.530052E-01  3.744432E-02  1.075902E-02  3.552770E-03
70  -999  -999  -999  -999  8.422745E-10  4.666883E-07  2.533761E-01  3.749885E-02  1.071373E-02  3.452609E-03
71  -999  -999  -999  -999  8.482620E-10  4.262622E-07  2.519056E-01  3.715066E-02  1.063270E-02  3.563282E-03
72  -999  -999  -999  -999  8.698512E-10  4.649557E-07  2.510895E-01  3.693427E-02  1.054696E-02  3.627558E-03
73  -999  -999  -999  -999  5.790073E-10  3.869069E-07  2.506733E-01  3.698241E-02  1.051790E-02  3.603854E-03
74  -999  -999  -999  -999  5.598451E-10  3.553946E-07  2.501718E-01  3.666665E-02  1.045620E-02  3.591212E-03
75  -999  -999  -999  -999  7.111801E-10  3.893475E-07  2.493238E-01  3.675719E-02  1.039523E-02  3.605020E-03
76  -999  -999  -999  -999  4.610848E-10  3.308971E-07  2.489762E-01  3.677406E-02  1.037963E-02  3.598730E-03
77  -999  -999  -999  -999  4.480013E-10  3.125437E-07  2.487695E-01  3.657117E-02  1.033756E-02  3.554729E-03
78  -999  -999  -999  -999  5.879471E-10  3.311083E-07  2.479120E-01  3.662966E-02  1.028784E-02  3.574507E-03
79  -999  -999  -999  -999  3.686910E-10  2.890699E-07  2.476702E-01  3.659166E-02  1.027537E-02  3.583246E-03
80  -999  -999  -999  -999  3.454048E-10  2.699504E-07  2.474947E-01  3.653168E-02  1.024979E-02  3.537559E-03
81  -999  -999  -999  -999  5.154144E-10  2.820715E-07  2.467064E-01  3.648405E-02  1.020605E-02  3.543846E-03
82  -999  -999  -999  -999  3.288112E-10  2.503575E-07  2.465868E-01  3.649337E-02  1.019939E-02  3.542251E-03
83  -999  -999  -999  -999  2.991196E-10  2.367841E-07  2.464153E-01  3.651530E-02  1.017711E-02  3.527611E-03
84  -999  -999  -999  -999  3.806444E-10  2.394969E-07  2.458286E-01  3.637369E-02  1.014929E-02  3.547404E-03
85  -999  -999  -999  -999  4.884394E-10  2.703885E-07  2.454736E-01  3.639586E-02  1.011669E-02  3.525086E-03
86  -999  -999  -999  -999  3.312139E-10  2.232483E-07  2.454738E-01  3.645514E-02  1.010567E-02  3.496566E-03
87  -999  -999  -999  -999  3.304665E-10  2.225246E-07  2.451388E-01  3.629420E-02  1.007145E-02  3.507378E-03
88  -999  -999  -999  -999  3.692537E-10  2.326916E-07  2.448617E-01  3.628579E-02  1.004767E-02  3.497329E-03
89  -999  -999  -999  -999  2.434593E-10  1.966859E-07  2.446873E-01  3.629823E-02  1.003588E-02  3.519134E-03
90  -999  -999  -999  -999  2.405305E-10  1.879792E-07  2.444451E-01  3.622585E-02  1.001504E-02  3.504140E-03
91  -999  -999  -999  -999  3.069901E-10  2.051241E-07  2.440364E-01  3.618483E-02  9.988848E-03  3.504356E-03
92  -999  -999  -999  -999  1.989082E-10  1.781397E-07  2.439849E-01  3.620656E-02  9.982398E-03  3.505514E-03
93  -999  -999  -999  -999  1.929214E-10  1.684490E-07  2.438209E-01  3.616773E-02  9.965486E-03  3.496332E-03
94  -999  -999  -999  -999  2.612724E-10  1.840895E-07  2.434079E-01  3.609433E-02  9.943840E-03  3.505081E-03
95  -999  -999  -999  -999  1.731734E-10  1.651543E-07  2.433686E-01  3.613166E-02  9.937416E-03  3.494181E-03
96  -999  -999  -999  -999  1.588013E-10  1.566764E-07  2.433050E-01  3.616896E-02  9.928087E-03  3.488647E-03
97  -999  -999  -999  -999  2.109752E-10  1.703186E-07  2.429348E-01  3.601749E-02  9.907540E-03  3.503909E-03
98  -999  -999  -999  -999  2.672153E-10  1.865680E-07  2.427361E-01  3.604778E-02  9.893562E-03  3.495158E-03
99  -999  -999  -999  -999  1.789017E-10  1.569580E-07  2.426809E-01  3.607910E-02  9.885759E-03  3.482652E-03
100  -999  -999  -999  -999  1.821137E-10  1.607678E-07  2.426080E-01  3.603709E-02  9.866666E-03  3.460286E-03
101  -999  -999  -999  -999  2.239212E-10  1.707384E-07  2.423026E-01  3.600663E-02  9.849816E-03  3.469707E-03
102  -999  -999  -999  -999  1.422341E-10  1.461550E-07  2.422598E-01  3.602524E-02  9.843313E-03  3.467727E-03
103  -999  -999  -999  -999  1.408599E-10  1.387079E-07  2.420963E-01  3.600092E-02  9.829904E-03  3.468998E-03
104  -999  -999  -999  -999  1.992387E-10  1.513700E-07  2.417990E-01  3.596382E-02  9.812152E-03  3.468418E-03
105  -999  -999  -999  -999  1.282700E-10  1.340968E-07  2.417847E-01  3.597712E-02  9.807685E-03  3.463652E-03
106  -999  -999  -999  -999  1.191094E-10  1.270281E-07  2.417081E-01  3.596875E-02  9.798150E-03  3.458100E-03
107  -999  -999  -999  -999  1.652930E-10  1.370455E-07  2.414497E-01  3.590639E-02  9.783282E-03  3.465554E-03
108  -999  -999  -999  -999  1.975246E-10  1.525629E-07  2.413386E-01  3.591721E-02  9.772560E-03  3.462193E-03
109  -999  -999  -999  -999  1.647322E-10  1.165698E-07  2.414629E-01  3.591173E-02  9.787855E-03  3.466761E-03
110  -999  -999  -999  -999  1.550613E-10  1.216127E-07  2.413808E-01  3.594387E-02  9.778406E-03  3.453150E-03
111  -999  -999  -999  -999  1.844975E-10  1.442460E-07  2.412237E-01  3.590521E-02  9.765185E-03  3.453970E-03
112  -999  -999  -999  -999  1.246816E-10  1.229853E-07  2.411943E-01  3.593375E-02  9.761351E-03  3.451108E-03
113  -999  -999  -999  -999  1.192130E-10  1.232792E-07  2.411266E-01  3.590965E-02  9.748450E-03  3.443157E-03
114  -999  -999  -999  -999  1.427015E-10  1.309001E-07  2.409256E-01  3.587064E-02  9.736573E-03  3.451637E-03
115  -999  -999  -999  -999  9.214600E-11  1.158657E-07  2.408890E-01  3.586791E-02  9.731644E-03  3.447119E-03
116  -999  -999  -999  -999  8.644294E-11  1.099976E-07  2.408197E-01  3.587874E-02  9.723780E-03  3.447978E-03
117  -999  -999  -999  -999  1.176175E-10  1.234417E-07  2.405917E-01  3.579751E-02  9.710037E-03  3.456409E-03
118  -999  -999  -999  -999  7.997129E-11  1.096700E-07  2.405633E-01  3.581354E-02  9.708377E-03  3.453237E-03
119  -999  -999  -999  -999  7.366896E-11  1.063162E-07  2.405206E-01  3.583154E-02  9.701754E-03  3.447674E-03
120  -999  -999  -999  -999  1.015013E-10  1.092688E-07  2.403871E-01  3.578499E-02  9.692655E-03  3.447864E-03
121  -999  -999  -999  -999  1.353765E-10  1.263649E-07  2.402861E-01  3.580081E-02  9.682449E-03  3.443714E-03
122  -999  -999  -999  -999  9.089160E-11  1.081694E-07  2.402505E-01  3.580692E-02  9.678843E-03  3.438942E-03
123  -999  -999  -999  -999  9.188328E-11  1.081112E-07  2.402147E-01  3.580837E-02  9.668489E-03  3.429562E-03
124  -999  -999  -999  -999  1.106288E-10  1.159997E-07  2.400577E-01  3.577663E-02  9.658893E-03  3.437210E-03
125  -999  -999  -999  -999  7.121368E-11  1.024889E-07  2.400281E-01  3.577255E-02  9.654736E-03  3.433884E-03
126  -999  -999  -999  -999  6.688847E-11  9.702246E-08  2.399751E-01  3.578345E-02  9.648387E-03  3.433811E-03
127  -999  -999  -999  -999  9.359412E-11  1.102205E-07  2.397979E-01  3.572843E-02  9.636640E-03  3.438654E-03
128  -999  -999  -999  -999  6.458231E-11  9.671666E-08  2.397875E-01  3.574351E-02  9.635745E-03  3.435979E-03
129  -999  -999  -999  -999  5.874357E-11  9.323560E-08  2.397563E-01  3.574868E-02  9.629876E-03  3.431501E-03
130  -999  -999  -999  -999  8.052265E-11  9.506842E-08  2.396455E-01  3.571428E-02  9.622558E-03  3.432969E-03
131  -999  -999  -999  -999  1.042770E-10  1.104812E-07  2.395737E-01  3.572318E-02  9.614089E-03  3.430564E-03
132  -999  -999  -999  -999  7.064757E-11  9.451427E-08  2.395467E-01  3.572783E-02  9.611169E-03  3.426993E-03
133  -999  -999  -999  -999  7.097510E-11  9.547798E-08  2.395168E-01  3.572801E-02  9.602254E-03  3.420524E-03
134  -999  -999  -999  -999  8.363813E-11  1.015361E-07  2.394072E-01  3.570616E-02  9.594795E-03  3.425471E-03
135  -999  -999  -999  -999  5.423146E-11  8.949720E-08  2.393849E-01  3.570107E-02  9.591261E-03  3.423384E-03
136  -999  -999  -999  -999  5.149639E-11  8.484186E-08  2.393384E-01  3.570440E-02  9.585790E-03  3.424411E-03
137  -999  -999  -999  -999  6.963465E-11  9.617608E-08  2.392053E-01  3.565937E-02  9.576263E-03  3.428873E-03
138  -999  -999  -999  -999  4.765329E-11  8.538791E-08  2.391918E-01  3.567039E-02  9.575344E-03  3.426869E-03
139  -999  -999  -999  -999  4.419007E-11  8.276540E-08  2.391643E-01  3.567599E-02  9.570508E-03  3.424412E-03
140  -999  -999  -999  -999  5.964257E-11  8.599102E-08  2.390814E-01  3.564879E-02  9.564659E-03  3.425039E-03
141  -999  -999  -999  -999  7.648017E-11  9.756279E-08  2.390280E-01  3.565506E-02  9.558160E-03  3.423251E-03
142  -999  -999  -999  -999  5.148220E-11  8.363723E-08  2.390061E-01  3.565872E-02  9.555578E-03  3.420296E-03
143  -999  -999  -999  -999  5.373516E-11  8.436476E-08  2.389783E-01  3.565518E-02  9.548034E-03  3.415249E-03
144  -999  -999  -999  -999  6.378807E-11  9.091707E-08  2.388916E-01  3.564030E-02  9.541950E-03  3.418991E-03
145  -999  -999  -999  -999  4.126140E-11  7.973006E-08  2.388716E-01  3.563560E-02  9.538949E-03  3.417622E-03
146  -999  -999  -999  -999  3.992307E-11  7.552309E-08  2.388369E-01  3.563964E-02  9.534557E-03  3.418218E-03
147  -999  -999  -999  -999  5.537597E-11  8.539902E-08  2.387320E-01  3.560917E-02  9.526580E-03  3.420432E-03
148  -999  -999  -999  -999  3.766217E-11  7.578185E-08  2.387256E-01  3.561871E-02  9.525928E-03  3.418901E-03
149  -999  -999  -999  -999  3.488719E-11  7.323536E-08  2.387041E-01  3.562006E-02  9.521764E-03  3.417064E-03
150  -999  -999  -999  -999  4.663384E-11  7.557517E-08  2.386388E-01  3.559993E-02  9.517098E-03  3.417811E-03
151  -999  -999  -999  -999  5.885183E-11  8.539483E-08  2.385987E-01  3.560358E-02  9.511852E-03  3.416588E-03
152  -999  -999  -999  -999  4.656056E-11  6.484457E-08  2.386427E-01  3.560294E-02  9.518454E-03  3.418383E-03
153  -999  -999  -999  -999  4.535895E-11  6.777837E-08  2.386089E-01  3.560862E-02  9.514968E-03  3.415223E-03
154  -999  -999  -999  -999  5.618485E-11  8.071025E-08  2.385602E-01  3.559830E-02  9.509184E-03  3.414583E-03
155  -999  -999  -999  -999  3.848097E-11  7.016804E-08  2.385500E-01  3.560770E-02  9.508177E-03  3.413872E-03
156  -999  -999  -999  -999  3.687599E-11  7.028953E-08  2.385287E-01  3.560379E-02  9.502971E-03  3.412039E-03
157  -999  -999  -999  -999  4.373378E-11  7.351038E-08  2.384685E-01  3.558837E-02  9.498535E-03  3.414243E-03
158  -999  -999  -999  -999  2.878090E-11  6.675404E-08  2.384540E-01  3.558406E-02  9.496185E-03  3.413149E-03
159  -999  -999  -999  -999  2.720829E-11  6.333474E-08  2.384323E-01  3.558919E-02  9.493566E-03  3.412949E-03
160  -999  -999  -999  -999  3.658883E-11  7.039790E-08  2.383706E-01  3.556504E-02  9.487583E-03  3.414872E-03
161  -999  -999  -999  -999  4.579890E-11  7.736010E-08  2.383350E-01  3.556675E-02  9.484186E-03  3.413435E-03
162  -999  -999  -999  -999  3.095136E-11  5.361218E-08  2.383752E-01  3.556215E-02  9.491329E-03  3.416269E-03
163  -999  -999  -999  -999  3.517695E-11  5.929578E-08  2.383470E-01  3.557201E-02  9.487537E-03  3.413257E-03
164  -999  -999  -999  -999  4.602008E-11  7.050050E-08  2.383114E-01  3.556963E-02  9.483306E-03  3.411677E-03
165  -999  -999  -999  -999  3.047103E-11  6.153658E-08  2.383030E-01  3.557015E-02  9.482091E-03  3.410115E-03
166  -999  -999  -999  -999  3.073560E-11  6.024963E-08  2.382848E-01  3.557161E-02  9.477572E-03  3.407746E-03
167  -999  -999  -999  -999  3.843420E-11  6.783091E-08  2.382255E-01  3.555940E-02  9.472784E-03  3.410440E-03
168  -999  -999  -999  -999  2.450201E-11  6.049792E-08  2.382146E-01  3.555656E-02  9.470692E-03  3.409312E-03
169  -999  -999  -999  -999  2.229822E-11  5.687950E-08  2.382012E-01  3.556350E-02  9.468414E-03  3.408815E-03
170  -999  -999  -999  -999  3.045611E-11  7.054060E-08  2.381375E-01  3.553343E-02  9.462551E-03  3.412278E-03
171  -999  -999  -999  -999  3.796497E-11  7.188927E-08  2.381077E-01  3.553754E-02  9.459578E-03  3.410289E-03
172  -999  -999  -999  -999  2.671911E-11  5.250008E-08  2.381386E-01  3.553332E-02  9.465705E-03  3.412772E-03
173  -999  -999  -999  -999  2.827675E-11  5.245729E-08  2.381239E-01  3.554264E-02  9.463296E-03  3.409828E-03
174  -999  -999  -999  -999  3.630442E-11  6.218130E-08  2.380983E-01  3.554219E-02  9.459765E-03  3.408827E-03
175  -999  -999  -999  -999  2.873519E-11  4.628832E-08  2.381238E-01  3.554139E-02  9.464115E-03  3.409785E-03
176  -999  -999  -999  -999  2.691053E-11  5.034670E-08  2.381042E-01  3.554218E-02  9.461373E-03  3.408773E-03
177  -999  -999  -999  -999  3.541305E-11  6.260635E-08  2.380711E-01  3.553609E-02  9.457164E-03  3.407197E-03
178  -999  -999  -999  -999  2.383479E-11  5.441782E-08  2.380634E-01  3.554154E-02  9.456534E-03  3.406679E-03
179  -999  -999  -999  -999  2.213092E-11  5.302057E-08  2.380488E-01  3.554423E-02  9.453196E-03  3.406158E-03
180  -999  -999  -999  -999  2.630886E-11  5.609029E-08  2.380120E-01  3.552925E-02  9.449455E-03  3.407464E-03
181  -999  -999  -999  -999  1.667828E-11  5.153075E-08  2.380009E-01  3.552571E-02  9.447960E-03  3.407449E-03
182  -999  -999  -999  -999  1.517899E-11  4.866883E-08  2.379837E-01  3.553023E-02  9.446252E-03  3.407629E-03
183  -999  -999  -999  -999  2.171665E-11  6.249115E-08  2.379496E-01  3.551274E-02  9.441622E-03  3.407934E-03
184  -999  -999  -999  -999  2.774070E-11  6.003927E-08  2.379228E-01  3.551407E-02  9.439143E-03  3.406887E-03
185  -999  -999  -999  -999  1.870716E-11  5.139095E-08  2.379115E-01  3.551513E-02  9.437823E-03  3.406583E-03
186  -999  -999  -999  -999  2.051747E-11  5.666418E-08  2.378989E-01  3.551639E-02  9.433770E-03  3.404235E-03
187  -999  -999  -999  -999  2.383717E-11  5.412268E-08  2.378723E-01  3.551108E-02  9.431383E-03  3.404879E-03
188  -999  -999  -999  -999  1.570424E-11  4.822812E-08  2.378659E-01  3.550923E-02  9.430079E-03  3.404265E-03
189  -999  -999  -999  -999  1.565467E-11  4.699646E-08  2.378500E-01  3.550971E-02  9.427335E-03  3.404861E-03
190  -999  -999  -999  -999  1.981416E-11  5.017488E-08  2.378176E-01  3.549943E-02  9.424418E-03  3.405597E-03
191  -999  -999  -999  -999  1.289355E-11  4.614381E-08  2.378108E-01  3.549805E-02  9.423204E-03  3.405323E-03
192  -999  -999  -999  -999  1.208692E-11  4.351678E-08  2.377989E-01  3.550019E-02  9.421804E-03  3.405270E-03
193  -999  -999  -999  -999  1.901330E-11  5.744386E-08  2.377694E-01  3.548804E-02  9.418026E-03  3.405451E-03
194  -999  -999  -999  -999  2.251896E-11  5.394072E-08  2.377524E-01  3.549025E-02  9.416005E-03  3.404684E-03
195  -999  -999  -999  -999  1.535337E-11  4.604075E-08  2.377434E-01  3.549090E-02  9.414960E-03  3.404160E-03
196  -999  -999  -999  -999  1.725620E-11  5.268146E-08  2.377339E-01  3.549212E-02  9.411479E-03  3.402339E-03
197  -999  -999  -999  -999  1.861728E-11  4.838297E-08  2.377129E-01  3.548795E-02  9.409622E-03  3.403272E-03
198  -999  -999  -999  -999  1.233957E-11  4.299036E-08  2.377067E-01  3.548394E-02  9.408558E-03  3.402821E-03
199  -999  -999  -999  -999  1.265737E-11  4.316875E-08  2.376926E-01  3.548484E-02  9.406166E-03  3.403434E-03
200  -999  -999  -999  -999  1.514776E-11  4.417121E-08  2.376695E-01  3.547703E-02  9.404095E-03  3.403819E-03
201  -999  -999  -999  -999  9.982356E-12  4.047674E-08  2.376648E-01  3.547664E-02  9.403113E-03  3.403497E-03
202  -999  -999  -999  -999  9.595892E-12  3.841198E-08  2.376540E-01  3.547645E-02  9.401759E-03  3.403556E-03
203  -999  -999  -999  -999  1.498765E-11  4.454983E-08  2.376290E-01  3.546806E-02  9.398756E-03  3.403668E-03
204  -999  -999  -999  -999  1.855422E-11  4.787044E-08  2.376158E-01  3.546990E-02  9.396934E-03  3.402979E-03
205  -999  -999  -999  -999  1.382884E-11  3.426994E-08  2.376330E-01  3.547008E-02  9.400345E-03  3.403720E-03
206  -999  -999  -999  -999  1.403818E-11  3.623932E-08  2.376210E-01  3.547256E-02  9.398814E-03  3.402499E-03
207  -999  -999  -999  -999  1.819323E-11  4.588402E-08  2.376058E-01  3.546928E-02  9.396185E-03  3.402131E-03
208  -999  -999  -999  -999  1.292453E-11  3.910420E-08  2.376031E-01  3.547217E-02  9.396035E-03  3.401859E-03
209  -999  -999  -999  -999  1.216552E-11  3.801896E-08  2.375945E-01  3.547144E-02  9.393734E-03  3.401560E-03
210  -999  -999  -999  -999  1.419360E-11  4.083358E-08  2.375760E-01  3.546538E-02  9.391721E-03  3.401967E-03
211  -999  -999  -999  -999  9.404262E-12  3.731473E-08  2.375706E-01  3.546301E-02  9.390563E-03  3.401914E-03
212  -999  -999  -999  -999  8.774462E-12  3.495540E-08  2.375615E-01  3.546535E-02  9.389659E-03  3.402010E-03
213  -999  -999  -999  -999  9.576315E-12  3.662581E-08  2.375538E-01  3.546111E-02  9.388240E-03  3.402139E-03
214  -999  -999  -999  -999  1.103325E-11  3.770308E-08  2.375373E-01  3.545718E-02  9.386428E-03  3.402026E-03
215  -999  -999  -999  -999  7.646278E-12  3.547973E-08  2.375333E-01  3.545462E-02  9.385446E-03  3.402064E-03
216  -999  -999  -999  -999  7.246673E-12  3.289220E-08  2.375252E-01  3.545463E-02  9.384864E-03  3.402306E-03
217  -999  -999  -999  -999  1.260806E-11  4.388459E-08  2.375122E-01  3.545140E-02  9.382283E-03  3.401579E-03
218  -999  -999  -999  -999  1.268927E-11  3.865482E-08  2.375026E-01  3.545138E-02  9.381290E-03  3.401014E-03
219  -999  -999  -999  -999  8.879915E-12  3.408051E-08  2.374990E-01  3.545191E-02  9.380589E-03  3.400861E-03
220  -999  -999  -999  -999  1.051524E-11  3.664080E-08  2.374892E-01  3.545241E-02  9.378538E-03  3.400876E-03
221  -999  -999  -999  -999  1.092593E-11  3.524643E-08  2.374798E-01  3.544919E-02  9.377374E-03  3.400613E-03
222  -999  -999  -999  -999  7.370725E-12  3.204475E-08  2.374764E-01  3.544798E-02  9.376627E-03  3.400434E-03
223  -999  -999  -999  -999  7.368565E-12  3.040896E-08  2.374672E-01  3.544726E-02  9.375334E-03  3.400804E-03
224  -999  -999  -999  -999  9.465880E-12  3.346774E-08  2.374541E-01  3.544292E-02  9.373350E-03  3.400526E-03
225  -999  -999  -999  -999  6.380250E-12  3.089836E-08  2.374494E-01  3.544107E-02  9.372796E-03  3.400868E-03
226  -999  -999  -999  -999  6.108929E-12  2.920754E-08  2.374408E-01  3.544157E-02  9.372083E-03  3.401318E-03
227  -999  -999  -999  -999  9.227506E-12  3.448532E-08  2.374327E-01  3.543823E-02  9.370192E-03  3.400339E-03
228  -999  -999  -999  -999  1.065375E-11  3.481407E-08  2.374229E-01  3.543829E-02  9.369019E-03  3.399980E-03
229  -999  -999  -999  -999  7.452561E-12  3.047701E-08  2.374190E-01  3.543759E-02  9.368341E-03  3.399963E-03
230  -999  -999  -999  -999  8.411838E-12  3.074910E-08  2.374110E-01  3.543853E-02  9.366814E-03  3.399775E-03
231  -999  -999  -999  -999  9.473048E-12  3.206756E-08  2.374019E-01  3.543577E-02  9.365341E-03  3.399644E-03
232  -999  -999  -999  -999  6.537851E-12  2.893909E-08  2.373991E-01  3.543457E-02  9.364858E-03  3.399464E-03
233  -999  -999  -999  -999  6.521962E-12  2.751682E-08  2.373925E-01  3.543488E-02  9.363726E-03  3.399633E-03
234  -999  -999  -999  -999  8.164140E-12  3.105955E-08  2.373831E-01  3.543044E-02  9.362182E-03  3.399444E-03
235  -999  -999  -999  -999  5.875536E-12  2.781071E-08  2.373798E-01  3.542944E-02  9.361777E-03  3.399693E-03
236  -999  -999  -999  -999  5.571775E-12  2.632185E-08  2.373724E-01  3.542866E-02  9.361130E-03  3.400189E-03
237  -999  -999  -999  -999  7.547909E-12  2.967782E-08  2.373663E-01  3.542690E-02  9.359616E-03  3.399302E-03
238  -999  -999  -999  -999  8.676836E-12  3.152959E-08  2.373581E-01  3.542663E-02  9.358569E-03  3.399171E-03
239  -999  -999  -999  -999  6.348918E-12  2.737916E-08  2.373554E-01  3.542600E-02  9.358086E-03  3.399040E-03
240  -999  -999  -999  -999  7.260371E-12  2.900922E-08  2.373484E-01  3.542609E-02  9.356609E-03  3.399030E-03
241  -999  -999  -999  -999  7.723620E-12  2.835157E-08  2.373420E-01  3.542445E-02  9.355625E-03  3.398773E-03
242  -999  -999  -999  -999  5.503569E-12  2.558382E-08  2.373399E-01  3.542370E-02  9.355104E-03  3.398635E-03
243  -999  -999  -999  -999  5.661088E-12  2.437790E-08  2.373340E-01  3.542320E-02  9.354102E-03  3.398796E-03
244  -999  -999  -999  -999  6.963789E-12  2.681566E-08  2.373265E-01  3.542006E-02  9.352718E-03  3.398509E-03
245  -999  -999  -999  -999  5.144791E-12  2.476102E-08  2.373236E-01  3.541954E-02  9.352354E-03  3.398785E-03
246  -999  -999  -999  -999  5.078237E-12  2.349466E-08  2.373178E-01  3.541853E-02  9.351769E-03  3.399151E-03
247  -999  -999  -999  -999  6.421351E-12  2.627805E-08  2.373129E-01  3.541682E-02  9.350591E-03  3.398469E-03
248  -999  -999  -999  -999  7.168294E-12  2.784088E-08  2.373059E-01  3.541638E-02  9.349587E-03  3.398412E-03
249  -999  -999  -999  -999  5.321015E-12  2.426321E-08  2.373034E-01  3.541583E-02  9.349188E-03  3.398295E-03
250  -999  -999  -999  -999  6.512850E-12  2.550075E-08  2.372971E-01  3.541574E-02  9.347872E-03  3.398354E-03
251  -999  -999  -999  -999  6.557086E-12  2.544590E-08  2.372920E-01  3.541424E-02  9.347009E-03  3.397990E-03
252  -999  -999  -999  -999  4.759181E-12  2.281922E-08  2.372898E-01  3.541379E-02  9.346542E-03  3.398016E-03
253  -999  -999  -999  -999  4.987054E-12  2.160154E-08  2.372850E-01  3.541335E-02  9.345622E-03  3.398083E-03
254  -999  -999  -999  -999  6.190488E-12  2.427449E-08  2.372786E-01  3.541065E-02  9.344402E-03  3.397756E-03
255  -999  -999  -999  -999  4.654075E-12  2.216400E-08  2.372761E-01  3.541014E-02  9.344026E-03  3.398031E-03
256  -999  -999  -999  -999  4.607601E-12  2.110218E-08  2.372712E-01  3.540936E-02  9.343572E-03  3.398289E-03
257  -999  -999  -999  -999  5.548208E-12  2.246090E-08  2.372678E-01  3.540798E-02  9.342483E-03  3.397694E-03
258  -999  -999  -999  -999  6.129300E-12  2.496778E-08  2.372620E-01  3.540761E-02  9.341692E-03  3.397624E-03
259  -999  -999  -999  -999  4.597804E-12  2.159488E-08  2.372599E-01  3.540704E-02  9.341261E-03  3.397541E-03
260  -999  -999  -999  -999  5.398116E-12  2.357433E-08  2.372543E-01  3.540681E-02  9.340154E-03  3.397586E-03
261  -999  -999  -999  -999  5.616095E-12  2.261352E-08  2.372499E-01  3.540571E-02  9.339332E-03  3.397395E-03
262  -999  -999  -999  -999  4.154866E-12  2.020032E-08  2.372482E-01  3.540501E-02  9.338987E-03  3.397305E-03
263  -999  -999  -999  -999  4.410249E-12  1.950196E-08  2.372442E-01  3.540470E-02  9.338124E-03  3.397329E-03
264  -999  -999  -999  -999  5.072996E-12  2.108524E-08  2.372396E-01  3.540243E-02  9.337206E-03  3.397083E-03
265  -999  -999  -999  -999  3.867420E-12  1.939424E-08  2.372376E-01  3.540232E-02  9.336836E-03  3.397269E-03
266  -999  -999  -999  -999  3.878438E-12  1.832310E-08  2.372334E-01  3.540128E-02  9.336410E-03  3.397475E-03
267  -999  -999  -999  -999  5.059943E-12  2.177720E-08  2.372297E-01  3.539985E-02  9.335318E-03  3.396987E-03