TITLE     = "tecplot geometry and solution file"
VARIABLES = "x"
"y"
"z"
"cp"
"cf_x"
ZONE T="Slice: Y=-0.001"
 STRANDID=0, SOLUTIONTIME=0
 I=405, J=1, K=1, ZONETYPE=Ordered
 DATAPACKING=POINT
 DT=(SINGLE SINGLE SINGLE SINGLE SINGLE )
 7.471460104E-01 -1.000000047E-03 -6.536680460E-02 2.431946844E-01 5.872178008E-04
 7.469513416E-01 -1.000000047E-03 -6.532090902E-02 4.533460438E-01 5.120142596E-04
 7.467177510E-01 -1.000000047E-03 -6.526584178E-02 4.290995598E-01 3.700396046E-04
 7.464378476E-01 -1.000000047E-03 -6.519985944E-02 4.348269701E-01 2.471088374E-04
 7.460951805E-01 -1.000000047E-03 -6.511911005E-02 4.290620089E-01 1.466875110E-04
 7.458133101E-01 -1.000000047E-03 -6.505270302E-02 4.322272837E-01 1.025093370E-04
 7.456396222E-01 -1.000000047E-03 -6.501178443E-02 4.338781536E-01 7.196998195E-05
 7.455822229E-01 -1.000000047E-03 -6.499826163E-02 4.339823127E-01 6.740712706E-05
 7.449595928E-01 -1.000000047E-03 -6.485163420E-02 4.295446873E-01 -8.769401347E-07
 7.445324063E-01 -1.000000047E-03 -6.475107372E-02 4.310626686E-01 -3.538444071E-05
 7.443206310E-01 -1.000000047E-03 -6.470123678E-02 4.285039008E-01 -4.655778321E-05
 7.438906431E-01 -1.000000047E-03 -6.460010260E-02 4.285741150E-01 -5.918873649E-05
 7.438408136E-01 -1.000000047E-03 -6.458838284E-02 4.287821054E-01 -6.011741061E-05
 7.433266640E-01 -1.000000047E-03 -6.446748227E-02 4.279036820E-01 -6.530902465E-05
 7.427788377E-01 -1.000000047E-03 -6.433872879E-02 4.276640117E-01 -7.579112571E-05
 7.421944737E-01 -1.000000047E-03 -6.420146674E-02 4.269355237E-01 -8.450532914E-05
 7.415375710E-01 -1.000000047E-03 -6.404721737E-02 4.263660610E-01 -8.466989675E-05
 7.407598495E-01 -1.000000047E-03 -6.386475265E-02 4.246104360E-01 -8.030499157E-05
 7.399196029E-01 -1.000000047E-03 -6.366770715E-02 4.260729253E-01 -7.105393888E-05
 7.393498421E-01 -1.000000047E-03 -6.353421509E-02 4.254196882E-01 -6.187308463E-05
 7.388737202E-01 -1.000000047E-03 -6.342265755E-02 4.245112836E-01 -5.373236490E-05
 7.378419638E-01 -1.000000047E-03 -6.318110973E-02 4.205826223E-01 -7.187164010E-05
 7.366251945E-01 -1.000000047E-03 -6.289650500E-02 4.227329493E-01 -7.101827941E-05
 7.352694869E-01 -1.000000047E-03 -6.257975847E-02 4.186613262E-01 -7.161610847E-05
 7.337726951E-01 -1.000000047E-03 -6.223044917E-02 4.189497828E-01 -7.074381574E-05
 7.321432233E-01 -1.000000047E-03 -6.185067073E-02 4.168181419E-01 -6.950078387E-05
 7.303956747E-01 -1.000000047E-03 -6.144395098E-02 4.154183865E-01 -6.689169822E-05
 7.285449505E-01 -1.000000047E-03 -6.101385504E-02 4.133487940E-01 -6.247150304E-05
 7.266091704E-01 -1.000000047E-03 -6.056470051E-02 4.115245640E-01 -5.737018364E-05
 7.246086597E-01 -1.000000047E-03 -6.010124832E-02 4.095318019E-01 -5.118019544E-05
 7.225432396E-01 -1.000000047E-03 -5.962357298E-02 4.073225856E-01 -4.345860361E-05
 7.204281092E-01 -1.000000047E-03 -5.913522840E-02 4.051884413E-01 -3.487489812E-05
 7.182725072E-01 -1.000000047E-03 -5.863839760E-02 4.029343724E-01 -2.555912761E-05
 7.160817385E-01 -1.000000047E-03 -5.813435093E-02 4.009018540E-01 -1.568030166E-05
 7.138583064E-01 -1.000000047E-03 -5.762371048E-02 3.986642957E-01 -6.071128155E-06
 7.116029263E-01 -1.000000047E-03 -5.710665137E-02 3.962314725E-01 3.356046363E-06
 7.093149424E-01 -1.000000047E-03 -5.658308417E-02 3.939239085E-01 1.314816654E-05
 7.069937587E-01 -1.000000047E-03 -5.605290458E-02 3.914548457E-01 2.298149957E-05
 7.046393752E-01 -1.000000047E-03 -5.551613495E-02 3.891226649E-01 3.251135058E-05
 7.022518516E-01 -1.000000047E-03 -5.497284234E-02 3.866850734E-01 4.169590466E-05
 6.998299360E-01 -1.000000047E-03 -5.442277715E-02 3.843333125E-01 5.057713861E-05
 6.973693371E-01 -1.000000047E-03 -5.386501178E-02 3.817718625E-01 5.967303878E-05
 6.948622465E-01 -1.000000047E-03 -5.329781398E-02 3.792915344E-01 6.901547022E-05
 6.922959089E-01 -1.000000047E-03 -5.271837488E-02 3.768476248E-01 7.768467185E-05
 6.896542311E-01 -1.000000047E-03 -5.212314427E-02 3.741658330E-01 8.570604405E-05
 6.869190931E-01 -1.000000047E-03 -5.150815472E-02 3.715467155E-01 9.392219363E-05
 6.840687394E-01 -1.000000047E-03 -5.086864904E-02 3.687288761E-01 1.024026933E-04
 6.810805202E-01 -1.000000047E-03 -5.019973963E-02 3.659177423E-01 1.108686047E-04
 6.779308319E-01 -1.000000047E-03 -4.949636385E-02 3.629171252E-01 1.194797223E-04
 6.745934486E-01 -1.000000047E-03 -4.875294492E-02 3.598624468E-01 1.286026381E-04
 6.710397005E-01 -1.000000047E-03 -4.796342552E-02 3.564768136E-01 1.390133839E-04
 6.672428846E-01 -1.000000047E-03 -4.712228850E-02 3.530819416E-01 1.520768419E-04
 6.631871462E-01 -1.000000047E-03 -4.622648656E-02 3.492958844E-01 1.693671657E-04
 6.588783264E-01 -1.000000047E-03 -4.527781904E-02 3.454911113E-01 1.916719775E-04
 6.543443799E-01 -1.000000047E-03 -4.428292066E-02 3.415683210E-01 2.190165542E-04
 6.496230960E-01 -1.000000047E-03 -4.325055331E-02 3.376264572E-01 2.504610457E-04
 6.447323561E-01 -1.000000047E-03 -4.218500108E-02 3.337990344E-01 2.835760824E-04
 6.398374438E-01 -1.000000047E-03 -4.112245888E-02 3.298519254E-01 3.184772213E-04
 6.345897913E-01 -1.000000047E-03 -3.998764977E-02 3.257068098E-01 3.526178480E-04
 6.289970279E-01 -1.000000047E-03 -3.878309950E-02 3.212116063E-01 3.852230147E-04
 6.231004596E-01 -1.000000047E-03 -3.751853481E-02 3.165510893E-01 4.146488791E-04
 6.169644594E-01 -1.000000047E-03 -3.620846570E-02 3.117670417E-01 4.401896149E-04
 6.106615067E-01 -1.000000047E-03 -3.486892208E-02 3.068035543E-01 4.622478154E-04
 6.042514443E-01 -1.000000047E-03 -3.351297230E-02 3.018343747E-01 4.817406298E-04
 5.977743268E-01 -1.000000047E-03 -3.214931488E-02 2.968691289E-01 4.993774346E-04
 5.912477970E-01 -1.000000047E-03 -3.078178130E-02 2.919969559E-01 5.159667926E-04
 5.846750140E-01 -1.000000047E-03 -2.941115573E-02 2.867805958E-01 5.324452650E-04
 5.780492425E-01 -1.000000047E-03 -2.803612314E-02 2.820210457E-01 5.491868942E-04
 5.713553429E-01 -1.000000047E-03 -2.665369585E-02 2.772753239E-01 5.651442334E-04
 5.645709038E-01 -1.000000047E-03 -2.525946312E-02 2.720734477E-01 5.806517438E-04
 5.576724410E-01 -1.000000047E-03 -2.384885587E-02 2.670344412E-01 5.968564074E-04
 5.506414771E-01 -1.000000047E-03 -2.241848223E-02 2.619306445E-01 6.134940777E-04
 5.434724092E-01 -1.000000047E-03 -2.096757852E-02 2.568959594E-01 6.301028188E-04
 5.361785889E-01 -1.000000047E-03 -1.949925907E-02 2.515184283E-01 6.460955483E-04
 5.287907124E-01 -1.000000047E-03 -1.802004129E-02 2.464630157E-01 6.610241253E-04
 5.213446021E-01 -1.000000047E-03 -1.653733104E-02 2.409280092E-01 6.750406465E-04
 5.138667822E-01 -1.000000047E-03 -1.505656354E-02 2.355877608E-01 6.893039681E-04
 5.063679218E-01 -1.000000047E-03 -1.357992645E-02 2.302599549E-01 7.044050144E-04
 4.988451004E-01 -1.000000047E-03 -1.210692897E-02 2.247980237E-01 7.205451839E-04
 4.912891686E-01 -1.000000047E-03 -1.063590404E-02 2.195775211E-01 7.372200489E-04
 4.836924374E-01 -1.000000047E-03 -9.165488183E-03 2.140862644E-01 7.534276228E-04
 4.760527313E-01 -1.000000047E-03 -7.695430890E-03 2.087464333E-01 7.693030057E-04
 4.683730304E-01 -1.000000047E-03 -6.226496771E-03 2.029195577E-01 7.853360730E-04
 4.606580436E-01 -1.000000047E-03 -4.759754054E-03 1.974944025E-01 8.021452231E-04
 4.529101551E-01 -1.000000047E-03 -3.295823000E-03 1.919853240E-01 8.188452921E-04
 4.451272786E-01 -1.000000047E-03 -1.834495110E-03 1.863375753E-01 8.341922658E-04
 4.373039007E-01 -1.000000047E-03 -3.749418538E-04 1.805146337E-01 8.491269546E-04
 4.294347763E-01 -1.000000047E-03 1.083576120E-03 1.747893989E-01 8.645678172E-04
 4.215185344E-01 -1.000000047E-03 2.541069640E-03 1.689430922E-01 8.804020472E-04
 4.135571420E-01 -1.000000047E-03 3.996884916E-03 1.629953533E-01 8.970681811E-04
 4.055533707E-01 -1.000000047E-03 5.450244993E-03 1.570141315E-01 9.150456171E-04
 3.975068629E-01 -1.000000047E-03 6.900932174E-03 1.510349959E-01 9.343435522E-04
 3.894124329E-01 -1.000000047E-03 8.349566720E-03 1.448283494E-01 9.538704180E-04
 3.812642694E-01 -1.000000047E-03 9.796841070E-03 1.389520913E-01 9.734016494E-04
 3.730632961E-01 -1.000000047E-03 1.124220900E-02 1.324576586E-01 9.921704186E-04
 3.648264706E-01 -1.000000047E-03 1.268233452E-02 1.260388494E-01 1.011236920E-03
 3.565852046E-01 -1.000000047E-03 1.411143877E-02 1.197254509E-01 1.031938125E-03
 3.483744562E-01 -1.000000047E-03 1.552332845E-02 1.130146757E-01 1.052178792E-03
 3.402227759E-01 -1.000000047E-03 1.691307314E-02 1.068873331E-01 1.071729464E-03
 3.321402073E-01 -1.000000047E-03 1.827904396E-02 1.004232466E-01 1.091278391E-03
 3.241167665E-01 -1.000000047E-03 1.962298341E-02 9.382253885E-02 1.112152822E-03
 3.161326647E-01 -1.000000047E-03 2.094819769E-02 8.723398298E-02 1.134613878E-03
 3.081671298E-01 -1.000000047E-03 2.225803584E-02 8.098998666E-02 1.157047343E-03
 3.002064526E-01 -1.000000047E-03 2.355456725E-02 7.476621866E-02 1.179887098E-03
 2.922448218E-01 -1.000000047E-03 2.483848110E-02 6.776867062E-02 1.201980165E-03
 2.842785418E-01 -1.000000047E-03 2.611008845E-02 6.115811691E-02 1.224094070E-03
 2.763012648E-01 -1.000000047E-03 2.737009339E-02 5.472677946E-02 1.247974578E-03
 2.683017850E-01 -1.000000047E-03 2.861988358E-02 4.786348715E-02 1.272271271E-03
 2.602674663E-01 -1.000000047E-03 2.986097150E-02 4.072130099E-02 1.296802191E-03
 2.521899045E-01 -1.000000047E-03 3.109410964E-02 3.409723938E-02 1.322821947E-03
 2.440675497E-01 -1.000000047E-03 3.231896088E-02 2.715433948E-02 1.349324710E-03
 2.359064817E-01 -1.000000047E-03 3.353400156E-02 1.987359487E-02 1.374241663E-03
 2.277164459E-01 -1.000000047E-03 3.473718092E-02 1.265742537E-02 1.399639877E-03
 2.194973677E-01 -1.000000047E-03 3.592793643E-02 5.536337849E-03 1.426472329E-03
 2.112532407E-01 -1.000000047E-03 3.710509837E-02 -1.875143149E-03 1.454119221E-03
 2.029816359E-01 -1.000000047E-03 3.826839104E-02 -9.277470410E-03 1.482536900E-03
 1.946768910E-01 -1.000000047E-03 3.941791877E-02 -1.659317501E-02 1.511444687E-03
 1.863363385E-01 -1.000000047E-03 4.055332765E-02 -2.434330620E-02 1.540990197E-03
 1.779670417E-01 -1.000000047E-03 4.167291522E-02 -3.189802542E-02 1.572363428E-03
 1.695874780E-01 -1.000000047E-03 4.277349263E-02 -3.954631835E-02 1.606878825E-03
 1.612245589E-01 -1.000000047E-03 4.385096580E-02 -4.731489718E-02 1.641737646E-03
 1.529063135E-01 -1.000000047E-03 4.490136728E-02 -5.480315909E-02 1.676660380E-03
 1.446531117E-01 -1.000000047E-03 4.592193663E-02 -6.254316121E-02 1.711313031E-03
 1.364791095E-01 -1.000000047E-03 4.691084474E-02 -7.025922090E-02 1.743240282E-03
 1.283959299E-01 -1.000000047E-03 4.786673188E-02 -7.764771581E-02 1.776924240E-03
 1.204122305E-01 -1.000000047E-03 4.878874496E-02 -8.554795384E-02 1.812143833E-03
 1.125318184E-01 -1.000000047E-03 4.967662692E-02 -9.284842759E-02 1.848758664E-03
 1.047507226E-01 -1.000000047E-03 5.053102598E-02 -9.979698807E-02 1.887299237E-03
 9.705486149E-02 -1.000000047E-03 5.135362968E-02 -1.074573398E-01 1.923474716E-03
 8.942326903E-02 -1.000000047E-03 5.214671046E-02 -1.144310609E-01 1.959969755E-03
 8.183755726E-02 -1.000000047E-03 5.291198194E-02 -1.217455715E-01 1.998617314E-03
 7.429276407E-02 -1.000000047E-03 5.364963412E-02 -1.288456023E-01 2.035643440E-03
 6.680355221E-02 -1.000000047E-03 5.435799435E-02 -1.361526698E-01 2.072269097E-03
 5.940297246E-02 -1.000000047E-03 5.503393337E-02 -1.431763768E-01 2.112036804E-03
 5.213515833E-02 -1.000000047E-03 5.567375943E-02 -1.501820982E-01 2.154847840E-03
 4.504359141E-02 -1.000000047E-03 5.627443269E-02 -1.572663635E-01 2.199728275E-03
 3.815941885E-02 -1.000000047E-03 5.683454499E-02 -1.636985540E-01 2.240946982E-03
 3.149500489E-02 -1.000000047E-03 5.735458434E-02 -1.696715057E-01 2.276974963E-03
 2.503949404E-02 -1.000000047E-03 5.783686042E-02 -1.762362272E-01 2.312191995E-03
 1.876381412E-02 -1.000000047E-03 5.828485265E-02 -1.822268218E-01 2.346403664E-03
 1.262449007E-02 -1.000000047E-03 5.870264769E-02 -1.884822994E-01 2.382033505E-03
 6.576857995E-03 -1.000000047E-03 5.909387767E-02 -1.941383481E-01 2.421212150E-03
 5.828096764E-04 -1.000000047E-03 5.946116894E-02 -1.997079849E-01 2.464242280E-03
 -5.385265686E-03 -1.000000047E-03 5.980598554E-02 -2.055117935E-01 2.508407924E-03
 -1.133683231E-02 -1.000000047E-03 6.012848020E-02 -2.111149579E-01 2.550267847E-03
 -1.726562344E-02 -1.000000047E-03 6.042791530E-02 -2.170366943E-01 2.592030913E-03
 -2.315397188E-02 -1.000000047E-03 6.070311368E-02 -2.229631543E-01 2.635540208E-03
 -2.897934057E-02 -1.000000047E-03 6.095289439E-02 -2.283670902E-01 2.680411562E-03
 -3.471945599E-02 -1.000000047E-03 6.117643788E-02 -2.340006381E-01 2.725737169E-03
 -4.036476091E-02 -1.000000047E-03 6.137374043E-02 -2.395536155E-01 2.771711210E-03
 -4.592220858E-02 -1.000000047E-03 6.154547259E-02 -2.450381517E-01 2.819307381E-03
 -5.140965804E-02 -1.000000047E-03 6.169243529E-02 -2.501243651E-01 2.870689379E-03
 -5.684817582E-02 -1.000000047E-03 6.181513891E-02 -2.563168108E-01 2.923942637E-03
 -6.224840879E-02 -1.000000047E-03 6.191360578E-02 -2.610644400E-01 2.974724397E-03
 -6.760526448E-02 -1.000000047E-03 6.198751181E-02 -2.656001747E-01 3.026380436E-03
 -7.290469855E-02 -1.000000047E-03 6.203658134E-02 -2.717613578E-01 3.078233916E-03
 -7.813194394E-02 -1.000000047E-03 6.206066906E-02 -2.770930529E-01 3.133246209E-03
 -8.327932656E-02 -1.000000047E-03 6.205989048E-02 -2.823880017E-01 3.191933967E-03
 -8.835187554E-02 -1.000000047E-03 6.203446537E-02 -2.870123088E-01 3.245696425E-03
 -9.336884320E-02 -1.000000047E-03 6.198440865E-02 -2.927074730E-01 3.301017918E-03
 -9.836141020E-02 -1.000000047E-03 6.190908328E-02 -2.970687747E-01 3.361392999E-03
 -1.033697277E-01 -1.000000047E-03 6.180684641E-02 -3.035662174E-01 3.423713380E-03
 -1.084415242E-01 -1.000000047E-03 6.167491525E-02 -3.086207211E-01 3.492360003E-03
 -1.136327460E-01 -1.000000047E-03 6.150905043E-02 -3.131493330E-01 3.568040673E-03
 -1.190091819E-01 -1.000000047E-03 6.130298600E-02 -3.192914426E-01 3.645836143E-03
 -1.246485338E-01 -1.000000047E-03 6.104733050E-02 -3.255382478E-01 3.731212812E-03
 -1.306419373E-01 -1.000000047E-03 6.072867289E-02 -3.309646547E-01 3.827388631E-03
 -1.371261179E-01 -1.000000047E-03 6.032619625E-02 -3.383136094E-01 3.923651297E-03
 -1.436138302E-01 -1.000000047E-03 5.985932797E-02 -3.469382823E-01 4.018846899E-03
 -1.495157182E-01 -1.000000047E-03 5.937438458E-02 -3.536360860E-01 4.113600589E-03
 -1.549900770E-01 -1.000000047E-03 5.886951461E-02 -3.612096310E-01 4.211430904E-03
 -1.601671875E-01 -1.000000047E-03 5.833992735E-02 -3.666148186E-01 4.320634063E-03
 -1.651469469E-01 -1.000000047E-03 5.777876079E-02 -3.748424947E-01 4.432064015E-03
 -1.699976474E-01 -1.000000047E-03 5.717947334E-02 -3.800268173E-01 4.543003626E-03
 -1.747530401E-01 -1.000000047E-03 5.653781816E-02 -3.851951659E-01 4.653968848E-03
 -1.794186980E-01 -1.000000047E-03 5.585172400E-02 -3.923845589E-01 4.758771043E-03
 -1.839850247E-01 -1.000000047E-03 5.512067303E-02 -3.982600272E-01 4.869929515E-03
 -1.884418577E-01 -1.000000047E-03 5.434516817E-02 -4.042247832E-01 4.992360715E-03
 -1.927880347E-01 -1.000000047E-03 5.352460593E-02 -4.096743762E-01 5.121457390E-03
 -1.970299631E-01 -1.000000047E-03 5.265526474E-02 -4.179890156E-01 5.256264471E-03
 -2.011736482E-01 -1.000000047E-03 5.173313245E-02 -4.215693772E-01 5.392829422E-03
 -2.052149773E-01 -1.000000047E-03 5.075682327E-02 -4.251080155E-01 5.524350330E-03
 -2.091376483E-01 -1.000000047E-03 4.972673208E-02 -4.308612645E-01 5.641763564E-03
 -2.129181176E-01 -1.000000047E-03 4.864537343E-02 -4.333970845E-01 5.762562156E-03
 -2.165327072E-01 -1.000000047E-03 4.751887918E-02 -4.362366796E-01 5.890414119E-03
 -2.199628651E-01 -1.000000047E-03 4.635318741E-02 -4.362796545E-01 6.014972925E-03
 -2.232056409E-01 -1.000000047E-03 4.514769837E-02 -4.373192489E-01 6.131808739E-03
 -2.262695730E-01 -1.000000047E-03 4.389976338E-02 -4.328053296E-01 6.233288441E-03
 -2.291631848E-01 -1.000000047E-03 4.260635003E-02 -4.223819971E-01 6.305826828E-03
 -2.318887562E-01 -1.000000047E-03 4.126105830E-02 -4.130259454E-01 6.327136885E-03
 -2.344425172E-01 -1.000000047E-03 3.986185417E-02 -3.905153871E-01 6.254577078E-03
 -2.368168533E-01 -1.000000047E-03 3.841182217E-02 -3.655962348E-01 6.121477578E-03
 -2.391185313E-01 -1.000000047E-03 3.682295978E-02 -3.555436432E-01 5.989637226E-03
 -2.410058677E-01 -1.000000047E-03 3.533938155E-02 -2.925224304E-01 5.823436659E-03
 -2.427340001E-01 -1.000000047E-03 3.378632665E-02 -2.399657071E-01 5.459165666E-03
 -2.442345023E-01 -1.000000047E-03 3.222151846E-02 -1.739901751E-01 4.965479486E-03
 -2.455425113E-01 -1.000000047E-03 3.060830384E-02 -7.645257562E-02 4.388381261E-03
 -2.466297001E-01 -1.000000047E-03 2.898628265E-02 1.279296726E-02 3.777270904E-03
 -2.474783659E-01 -1.000000047E-03 2.741992287E-02 1.301693469E-01 3.114999970E-03
 -2.480721921E-01 -1.000000047E-03 2.603599802E-02 2.160034776E-01 2.480957424E-03
 -2.485141009E-01 -1.000000047E-03 2.469086461E-02 3.490360379E-01 1.761720283E-03
 -2.488581985E-01 -1.000000047E-03 2.320267074E-02 4.600448012E-01 1.065940713E-03
 -2.490486801E-01 -1.000000047E-03 2.178893611E-02 5.729685426E-01 4.513412423E-04
 -2.491065711E-01 -1.000000047E-03 2.035161853E-02 6.808634400E-01 -2.025372487E-05
 -2.490280718E-01 -1.000000047E-03 1.885242201E-02 7.557443976E-01 -2.737267350E-04
 -2.488259226E-01 -1.000000047E-03 1.743891649E-02 8.122695684E-01 -5.357237533E-04
 -2.484661937E-01 -1.000000047E-03 1.591775939E-02 9.129170775E-01 -6.464201142E-04
 -2.478788346E-01 -1.000000047E-03 1.418516133E-02 9.542047381E-01 -5.165964831E-04
 -2.470641732E-01 -1.000000047E-03 1.237202808E-02 9.790766239E-01 -2.828263096E-04
 -2.460267991E-01 -1.000000047E-03 1.053048763E-02 9.884390831E-01 2.808274303E-06
 -2.447747737E-01 -1.000000047E-03 8.688026108E-03 9.749565721E-01 3.388205660E-04
 -2.432895750E-01 -1.000000047E-03 6.822683848E-03 9.574068189E-01 6.871272926E-04
 -2.416305989E-01 -1.000000047E-03 5.000077188E-03 9.217278361E-01 9.857396362E-04
 -2.396056801E-01 -1.000000047E-03 3.032879438E-03 8.820350766E-01 1.206704415E-03
 -2.375220954E-01 -1.000000047E-03 1.220159233E-03 8.477676511E-01 1.428153017E-03
 -2.352057397E-01 -1.000000047E-03 -6.138799945E-04 8.046674132E-01 1.602158183E-03
 -2.327084541E-01 -1.000000047E-03 -2.425400075E-03 7.663713098E-01 1.732892473E-03
 -2.300332338E-01 -1.000000047E-03 -4.214907065E-03 7.282501459E-01 1.833664719E-03
 -2.271789759E-01 -1.000000047E-03 -5.988914054E-03 6.920199394E-01 1.923007541E-03
 -2.241374701E-01 -1.000000047E-03 -7.753170561E-03 6.580057740E-01 2.004490700E-03
 -2.208973616E-01 -1.000000047E-03 -9.512629360E-03 6.267496943E-01 2.083587926E-03
 -2.174613327E-01 -1.000000047E-03 -1.126672328E-02 5.966684818E-01 2.158279298E-03
 -2.138443440E-01 -1.000000047E-03 -1.300801337E-02 5.682806969E-01 2.231912687E-03
 -2.100702077E-01 -1.000000047E-03 -1.472503226E-02 5.426309109E-01 2.302044071E-03
 -2.061695158E-01 -1.000000047E-03 -1.640743762E-02 5.179840922E-01 2.360994928E-03
 -2.021741271E-01 -1.000000047E-03 -1.804630086E-02 4.952071309E-01 2.410929184E-03
 -1.981106699E-01 -1.000000047E-03 -1.963477768E-02 4.761445224E-01 2.453008899E-03
 -1.939939559E-01 -1.000000047E-03 -2.117238007E-02 4.571826756E-01 2.489780542E-03
 -1.898269206E-01 -1.000000047E-03 -2.266342938E-02 4.403384626E-01 2.522720955E-03
 -1.856008172E-01 -1.000000047E-03 -2.411440574E-02 4.245061874E-01 2.553531202E-03
 -1.812997162E-01 -1.000000047E-03 -2.553319372E-02 4.104556143E-01 2.578854794E-03
 -1.769004017E-01 -1.000000047E-03 -2.692934871E-02 3.963462412E-01 2.595763886E-03
 -1.723669469E-01 -1.000000047E-03 -2.831475064E-02 3.827601671E-01 2.609400544E-03
 -1.676515043E-01 -1.000000047E-03 -2.970241942E-02 3.715560138E-01 2.618508413E-03
 -1.626929343E-01 -1.000000047E-03 -3.110731952E-02 3.594892025E-01 2.625328954E-03
 -1.574147195E-01 -1.000000047E-03 -3.254653513E-02 3.478634655E-01 2.631827490E-03
 -1.517265737E-01 -1.000000047E-03 -3.403727710E-02 3.364886940E-01 2.640413120E-03
 -1.455147564E-01 -1.000000047E-03 -3.559890017E-02 3.258905113E-01 2.650622744E-03
 -1.393646449E-01 -1.000000047E-03 -3.708200529E-02 3.156502545E-01 2.649744740E-03
 -1.335367560E-01 -1.000000047E-03 -3.843364492E-02 3.058800697E-01 2.634718316E-03
 -1.279503554E-01 -1.000000047E-03 -3.968307003E-02 2.975210249E-01 2.618950792E-03
 -1.225502938E-01 -1.000000047E-03 -4.085033387E-02 2.910126746E-01 2.604942303E-03
 -1.172852814E-01 -1.000000047E-03 -4.195226356E-02 2.844202220E-01 2.591309138E-03
 -1.121149436E-01 -1.000000047E-03 -4.300129414E-02 2.784588039E-01 2.579245949E-03
 -1.070088297E-01 -1.000000047E-03 -4.400652647E-02 2.728715837E-01 2.566468436E-03
 -1.019455120E-01 -1.000000047E-03 -4.497447982E-02 2.676999569E-01 2.553899307E-03
 -9.691005945E-02 -1.000000047E-03 -4.590990022E-02 2.633980513E-01 2.539898735E-03
 -9.189123660E-02 -1.000000047E-03 -4.681631550E-02 2.584055960E-01 2.523903735E-03
 -8.687958866E-02 -1.000000047E-03 -4.769654572E-02 2.534845769E-01 2.509198384E-03
 -8.186685294E-02 -1.000000047E-03 -4.855300486E-02 2.502830625E-01 2.494829474E-03
 -7.684523612E-02 -1.000000047E-03 -4.938785732E-02 2.467477769E-01 2.479593735E-03
 -7.180556655E-02 -1.000000047E-03 -5.020331964E-02 2.423438281E-01 2.463595010E-03
 -6.673497707E-02 -1.000000047E-03 -5.100188777E-02 2.385451496E-01 2.447606297E-03
 -6.161594763E-02 -1.000000047E-03 -5.178650841E-02 2.358305454E-01 2.430649940E-03
 -5.642873421E-02 -1.000000047E-03 -5.256019905E-02 2.325379103E-01 2.413072856E-03
 -5.115751550E-02 -1.000000047E-03 -5.332512408E-02 2.294948995E-01 2.396560740E-03
 -4.579822347E-02 -1.000000047E-03 -5.408156663E-02 2.262369245E-01 2.380463062E-03
 -4.035897925E-02 -1.000000047E-03 -5.482802540E-02 2.237694561E-01 2.366307424E-03
 -3.485388309E-02 -1.000000047E-03 -5.556236953E-02 2.215822786E-01 2.350184601E-03
 -2.929670922E-02 -1.000000047E-03 -5.628275499E-02 2.179049551E-01 2.331703901E-03
 -2.369472012E-02 -1.000000047E-03 -5.698839203E-02 2.152375728E-01 2.315205988E-03
 -1.804194413E-02 -1.000000047E-03 -5.768013746E-02 2.145392299E-01 2.297370695E-03
 -1.231919974E-02 -1.000000047E-03 -5.836027861E-02 2.110701650E-01 2.277121413E-03
 -6.498871837E-03 -1.000000047E-03 -5.903180316E-02 2.082709372E-01 2.259754576E-03
 -5.443011178E-04 -1.000000047E-03 -5.969836563E-02 2.075517476E-01 2.242390765E-03
 5.576877389E-03 -1.000000047E-03 -6.036269292E-02 2.052139640E-01 2.221682109E-03
 1.188266091E-02 -1.000000047E-03 -6.102555618E-02 2.027404904E-01 2.201949246E-03
 1.837981306E-02 -1.000000047E-03 -6.168637797E-02 2.014413178E-01 2.180816373E-03
 2.506162785E-02 -1.000000047E-03 -6.234323606E-02 1.993259043E-01 2.159232739E-03
 3.191237897E-02 -1.000000047E-03 -6.299352646E-02 1.979816556E-01 2.142415848E-03
 3.891314566E-02 -1.000000047E-03 -6.363455951E-02 1.968457103E-01 2.125923755E-03
 4.604436830E-02 -1.000000047E-03 -6.426385790E-02 1.947619319E-01 2.104319166E-03
 5.329375714E-02 -1.000000047E-03 -6.487983465E-02 1.933421195E-01 2.081963466E-03
 6.066342071E-02 -1.000000047E-03 -6.548227370E-02 1.925510019E-01 2.059611259E-03
 6.816832721E-02 -1.000000047E-03 -6.607192755E-02 1.912606657E-01 2.036712598E-03
 7.582886517E-02 -1.000000047E-03 -6.664973497E-02 1.902133524E-01 2.015702426E-03
 8.366303891E-02 -1.000000047E-03 -6.721626967E-02 1.894593537E-01 1.996092731E-03
 9.167864174E-02 -1.000000047E-03 -6.777124852E-02 1.888130456E-01 1.979070017E-03
 9.986764938E-02 -1.000000047E-03 -6.831326336E-02 1.882258505E-01 1.962384675E-03
 1.082074717E-01 -1.000000047E-03 -6.884012371E-02 1.876620352E-01 1.940389397E-03
 1.166624874E-01 -1.000000047E-03 -6.934919953E-02 1.870245188E-01 1.916445210E-03
 1.251854748E-01 -1.000000047E-03 -6.983766705E-02 1.867661774E-01 1.894043759E-03
 1.337314695E-01 -1.000000047E-03 -7.030330598E-02 1.869230270E-01 1.870993059E-03
 1.422630996E-01 -1.000000047E-03 -7.074479014E-02 1.870646626E-01 1.849263557E-03
 1.507507265E-01 -1.000000047E-03 -7.116155326E-02 1.867076755E-01 1.828391920E-03
 1.591712236E-01 -1.000000047E-03 -7.155356556E-02 1.870921403E-01 1.806086511E-03
 1.674965322E-01 -1.000000047E-03 -7.192074507E-02 1.874214709E-01 1.785275526E-03
 1.756954044E-01 -1.000000047E-03 -7.226308435E-02 1.879459918E-01 1.767746871E-03
 1.837428808E-01 -1.000000047E-03 -7.258105278E-02 1.883993745E-01 1.752136974E-03
 1.916299313E-01 -1.000000047E-03 -7.287579030E-02 1.889970452E-01 1.736629405E-03
 1.993801445E-01 -1.000000047E-03 -7.314954698E-02 1.897228807E-01 1.718197134E-03
 2.070555985E-01 -1.000000047E-03 -7.340554148E-02 1.901812553E-01 1.699635177E-03
 2.147432417E-01 -1.000000047E-03 -7.364726067E-02 1.912896037E-01 1.681786496E-03
 2.225281745E-01 -1.000000047E-03 -7.387741655E-02 1.921784580E-01 1.662642346E-03
 2.304103971E-01 -1.000000047E-03 -7.409582287E-02 1.928013563E-01 1.646534656E-03
 2.384106219E-01 -1.000000047E-03 -7.430280745E-02 1.943987310E-01 1.630787854E-03
 2.465146184E-01 -1.000000047E-03 -7.449777424E-02 1.951887906E-01 1.611866523E-03
 2.546856105E-01 -1.000000047E-03 -7.467971742E-02 1.963979155E-01 1.593895489E-03
 2.628790736E-01 -1.000000047E-03 -7.484775037E-02 1.979879290E-01 1.575918635E-03
 2.710677981E-01 -1.000000047E-03 -7.500160486E-02 1.992763579E-01 1.557746204E-03
 2.792537808E-01 -1.000000047E-03 -7.514168322E-02 2.007623911E-01 1.541815000E-03
 2.874583006E-01 -1.000000047E-03 -7.526860386E-02 2.023997456E-01 1.526026521E-03
 2.957090437E-01 -1.000000047E-03 -7.538292557E-02 2.041299492E-01 1.509436639E-03
 3.040194511E-01 -1.000000047E-03 -7.548488677E-02 2.056241781E-01 1.491884934E-03
 3.123767972E-01 -1.000000047E-03 -7.557436079E-02 2.073793113E-01 1.473468263E-03
 3.207419515E-01 -1.000000047E-03 -7.565106452E-02 2.093952149E-01 1.457518898E-03
 3.290645480E-01 -1.000000047E-03 -7.571487129E-02 2.114880532E-01 1.442863140E-03
 3.373050094E-01 -1.000000047E-03 -7.576599717E-02 2.132281214E-01 1.425426453E-03
 3.454417586E-01 -1.000000047E-03 -7.580494136E-02 2.150787711E-01 1.407429692E-03
 3.534763753E-01 -1.000000047E-03 -7.583233714E-02 2.173343450E-01 1.390547375E-03
 3.614305854E-01 -1.000000047E-03 -7.584881783E-02 2.193730325E-01 1.374837477E-03
 3.693341911E-01 -1.000000047E-03 -7.585489005E-02 2.214388251E-01 1.360545983E-03
 3.772146106E-01 -1.000000047E-03 -7.585085928E-02 2.235850692E-01 1.346144709E-03
 3.850894570E-01 -1.000000047E-03 -7.583692670E-02 2.258067727E-01 1.331421430E-03
 3.929646313E-01 -1.000000047E-03 -7.581323385E-02 2.280886471E-01 1.316683367E-03
 4.008385539E-01 -1.000000047E-03 -7.577990741E-02 2.304715365E-01 1.302310615E-03
 4.087122977E-01 -1.000000047E-03 -7.573707402E-02 2.329128385E-01 1.287090476E-03
 4.165967405E-01 -1.000000047E-03 -7.568476349E-02 2.351450175E-01 1.270419918E-03
 4.245114923E-01 -1.000000047E-03 -7.562287897E-02 2.376009524E-01 1.253966941E-03
 4.324779510E-01 -1.000000047E-03 -7.555120438E-02 2.403794527E-01 1.237333869E-03
 4.405099750E-01 -1.000000047E-03 -7.546950877E-02 2.427319884E-01 1.221227809E-03
 4.486037791E-01 -1.000000047E-03 -7.537767291E-02 2.456838042E-01 1.206292305E-03
 4.567296207E-01 -1.000000047E-03 -7.527595758E-02 2.483283728E-01 1.192097552E-03
 4.648405910E-01 -1.000000047E-03 -7.516498864E-02 2.512884140E-01 1.178199891E-03
 4.728908241E-01 -1.000000047E-03 -7.504557818E-02 2.541222572E-01 1.162386383E-03
 4.808457494E-01 -1.000000047E-03 -7.491856813E-02 2.568400502E-01 1.145074028E-03
 4.886894524E-01 -1.000000047E-03 -7.478459179E-02 2.597035170E-01 1.127042575E-03
 4.964275658E-01 -1.000000047E-03 -7.464394718E-02 2.628512681E-01 1.109136851E-03
 5.040807128E-01 -1.000000047E-03 -7.449659705E-02 2.657199502E-01 1.093479572E-03
 5.116720796E-01 -1.000000047E-03 -7.434234023E-02 2.687556744E-01 1.079728710E-03
 5.192170143E-01 -1.000000047E-03 -7.418105751E-02 2.715940177E-01 1.066491357E-03
 5.267151594E-01 -1.000000047E-03 -7.401290536E-02 2.748738229E-01 1.052435138E-03
 5.341487527E-01 -1.000000047E-03 -7.383844256E-02 2.779403925E-01 1.037608599E-03
 5.414887667E-01 -1.000000047E-03 -7.365860045E-02 2.810116410E-01 1.022460754E-03
 5.487078428E-01 -1.000000047E-03 -7.347436994E-02 2.840815187E-01 1.006024191E-03
 5.557922721E-01 -1.000000047E-03 -7.328645140E-02 2.870889604E-01 9.898201097E-04
 5.627446771E-01 -1.000000047E-03 -7.309517264E-02 2.907620668E-01 9.749995079E-04
 5.695772767E-01 -1.000000047E-03 -7.290054113E-02 2.936920822E-01 9.597904864E-04
 5.763068199E-01 -1.000000047E-03 -7.270237058E-02 2.965431809E-01 9.436875116E-04
 5.829501748E-01 -1.000000047E-03 -7.250040770E-02 3.001492023E-01 9.271702729E-04
 5.895202756E-01 -1.000000047E-03 -7.229445875E-02 3.033031821E-01 9.105909849E-04
 5.960293412E-01 -1.000000047E-03 -7.208430022E-02 3.066752851E-01 8.935107035E-04
 6.024917364E-01 -1.000000047E-03 -7.186957449E-02 3.100185394E-01 8.745256346E-04
 6.089287400E-01 -1.000000047E-03 -7.164964080E-02 3.134733737E-01 8.522798307E-04
 6.153745651E-01 -1.000000047E-03 -7.142332196E-02 3.169642091E-01 8.251979016E-04
 6.218742728E-01 -1.000000047E-03 -7.118888944E-02 3.206063211E-01 7.919757045E-04
 6.284862161E-01 -1.000000047E-03 -7.094395161E-02 3.243169188E-01 7.525430410E-04
 6.352654099E-01 -1.000000047E-03 -7.068601996E-02 3.282573819E-01 7.080736686E-04
 6.422627568E-01 -1.000000047E-03 -7.041247934E-02 3.325703442E-01 6.596146268E-04
 6.492052078E-01 -1.000000047E-03 -7.013369352E-02 3.367156982E-01 6.105783395E-04
 6.549822092E-01 -1.000000047E-03 -6.989604235E-02 3.403512537E-01 5.617993884E-04
 6.599674225E-01 -1.000000047E-03 -6.968677789E-02 3.437678218E-01 5.235896679E-04
 6.643803716E-01 -1.000000047E-03 -6.949829310E-02 3.468635678E-01 4.960556980E-04
 6.683671474E-01 -1.000000047E-03 -6.932536513E-02 3.498383760E-01 4.767079372E-04
 6.720267534E-01 -1.000000047E-03 -6.916440278E-02 3.526525199E-01 4.632235214E-04
 6.754218936E-01 -1.000000047E-03 -6.901316345E-02 3.553029597E-01 4.533997271E-04
 6.785980463E-01 -1.000000047E-03 -6.886999309E-02 3.578260541E-01 4.454297887E-04