TITLE     = "fun3d_case_title"
VARIABLES = "Iteration"
"R_1"
"R_2"
"R_3"
"R_4"
"R_5"
"R_6"
"C_L"
"C_D"
"C_M_y"
"C_Dp"
"C_Dv"
ZONE T="FUN3D, PW_V1_1.0 Grid"
 STRANDID=0, SOLUTIONTIME=0
 I=2617, J=1, K=1, ZONETYPE=Ordered
 DATAPACKING=POINT
 DT=(SINGLE SINGLE SINGLE SINGLE SINGLE SINGLE SINGLE SINGLE SINGLE SINGLE SINGLE SINGLE )
 1.000000000E+00 4.403320020E-07 1.154076656E-07 5.470355546E-08 1.488439949E-07 1.109028972E-06 2.773987399E-05 3.591099381E-01 2.780752480E-01 -9.576777369E-02 1.776794195E-01 1.003958285E-01
 2.000000000E+00 3.862126050E-07 1.152600007E-07 9.422024760E-08 2.232279712E-07 9.726517192E-07 2.641165884E-05 8.943983912E-01 5.476232767E-01 -2.358287126E-01 4.486277997E-01 9.899546206E-02
 3.000000000E+00 2.798141168E-07 9.399971646E-08 1.197439872E-07 2.322596231E-07 7.046824635E-07 2.421286808E-05 1.514509559E+00 8.695843816E-01 -3.966018558E-01 7.728009224E-01 9.678347409E-02
 4.000000000E+00 2.379865123E-07 7.408576863E-08 1.097439721E-07 1.886479026E-07 5.998109600E-07 2.090931594E-05 1.818474650E+00 1.035420537E+00 -4.672768116E-01 9.412551522E-01 9.416539222E-02
 5.000000000E+00 2.401122856E-07 7.278815417E-08 8.082993475E-08 1.510872494E-07 6.057336464E-07 1.668560435E-05 1.749517560E+00 1.003370523E+00 -4.446826279E-01 9.121025801E-01 9.126793593E-02
 6.000000000E+00 1.717375255E-07 7.089414567E-08 7.040987526E-08 1.228708442E-07 4.334490882E-07 1.249299567E-05 1.637855172E+00 9.208433628E-01 -4.264835119E-01 8.335528374E-01 8.729052544E-02
 7.000000000E+00 1.658416551E-07 1.177572031E-07 6.179966050E-08 1.075732428E-07 4.181396207E-07 9.277636309E-06 7.919770479E-01 7.212561369E-01 -1.635891944E-01 6.411256194E-01 8.013053238E-02
 8.000000000E+00 8.576216715E-08 1.196641080E-07 4.796530817E-08 4.983355950E-08 2.152048495E-07 5.199941825E-06 -5.286807418E-01 3.418011963E-01 1.797431558E-01 2.698066533E-01 7.199455798E-02
 9.000000000E+00 8.833069387E-08 1.205075506E-07 4.876723736E-08 4.333339021E-08 2.218642265E-07 4.803196589E-06 -6.393731833E-01 3.087660670E-01 1.804356426E-01 2.387190759E-01 7.004699111E-02
 1.000000000E+01 8.984675759E-08 1.155779756E-07 5.307539652E-08 3.493555667E-08 2.268302239E-07 3.966900294E-06 -5.757041574E-01 2.953239083E-01 6.993974000E-02 2.278800309E-01 6.744388491E-02
 1.100000000E+01 7.207581376E-08 1.046098248E-07 5.831910954E-08 2.998772430E-08 1.807851504E-07 3.106738632E-06 -2.873913348E-01 2.745687962E-01 -9.351204336E-02 2.116262764E-01 6.294252723E-02
 1.200000000E+01 6.985015943E-08 1.027978911E-07 5.835858019E-08 2.880885575E-08 1.740870488E-07 2.993581120E-06 -2.422317713E-01 2.688662112E-01 -1.103958711E-01 2.070305049E-01 6.183569506E-02
 1.300000000E+01 6.895216131E-08 9.808947254E-08 5.406189985E-08 2.709469094E-08 1.704732142E-07 2.684824267E-06 -2.001577020E-01 2.509370148E-01 -1.024310291E-01 1.907110661E-01 6.022593379E-02
 1.400000000E+01 7.412832304E-08 8.266702878E-08 3.894304612E-08 2.689393064E-08 1.833543308E-07 2.278093234E-06 -9.235003591E-02 2.360011190E-01 -5.869603157E-02 1.787372828E-01 5.726382509E-02
 1.500000000E+01 7.880738906E-08 5.650518276E-08 4.034729173E-08 3.041933638E-08 1.978304596E-07 1.802704332E-06 7.298474014E-02 1.713783890E-01 -5.920231715E-02 1.192803606E-01 5.209802464E-02
 1.600000000E+01 7.608365138E-08 5.323060392E-08 4.114206220E-08 2.966480750E-08 1.907528429E-07 1.756326924E-06 7.996153831E-02 1.389923096E-01 -5.090712383E-02 8.806471527E-02 5.092759803E-02
 1.700000000E+01 7.176318206E-08 5.490810295E-08 3.938445303E-08 2.781773567E-08 1.796917672E-07 1.534171361E-06 3.267280757E-02 8.811319619E-02 6.133023649E-03 3.878684342E-02 4.932635650E-02
 1.800000000E+01 5.880086817E-08 6.738585512E-08 3.401416748E-08 2.636291541E-08 1.467354309E-07 1.333211003E-06 -1.190845389E-02 9.480331093E-03 5.587935075E-02 -3.681035712E-02 4.629068822E-02
 1.900000000E+01 5.444202955E-08 7.106885391E-08 3.328337783E-08 2.424860313E-08 1.352337193E-07 1.324271921E-06 -5.599239375E-03 -1.730675227E-03 5.551461503E-02 -4.736252502E-02 4.563185200E-02
 2.000000000E+01 5.021979277E-08 7.483154718E-08 3.245160229E-08 2.321628934E-08 1.240791363E-07 1.228683914E-06 -8.501626551E-03 -9.937041439E-03 5.745007843E-02 -5.460295081E-02 4.466591030E-02
 2.100000000E+01 4.219245753E-08 7.814975334E-08 3.098273282E-08 2.336530791E-08 1.032556298E-07 1.131062163E-06 1.429191045E-02 -7.041612640E-03 3.239384666E-02 -4.992952570E-02 4.288791120E-02
 2.200000000E+01 4.527108644E-08 6.568114230E-08 2.335746530E-08 2.461029780E-08 1.138435763E-07 1.049715138E-06 4.710150138E-02 2.950290218E-02 -4.882067442E-03 -1.028893236E-02 3.979183361E-02
 2.300000000E+01 4.931606057E-08 5.990774810E-08 1.943353212E-08 2.191093351E-08 1.244639662E-07 1.050912260E-06 2.373095229E-02 3.804920241E-02 6.447965279E-03 -1.052181702E-03 3.910138458E-02
 2.400000000E+01 5.157592398E-08 5.320682206E-08 1.843578445E-08 2.120314058E-08 1.315883793E-07 9.407738730E-07 -1.922806166E-02 5.894098803E-02 3.112741746E-02 2.079171129E-02 3.814927861E-02
 2.500000000E+01 4.876765658E-08 4.733934489E-08 2.095278440E-08 2.207357852E-08 1.232450728E-07 8.645072285E-07 -6.205291674E-02 1.029237211E-01 1.051815413E-02 6.659293920E-02 3.633078188E-02
 2.600000000E+01 4.648972052E-08 4.613911031E-08 1.976458464E-08 2.003089428E-08 1.166742081E-07 8.660467756E-07 -8.116356283E-02 1.142208427E-01 1.070732158E-02 7.828761637E-02 3.593322262E-02
 2.700000000E+01 4.493283967E-08 4.623941763E-08 1.805864791E-08 1.912538394E-08 1.120854378E-07 8.050542988E-07 -8.116383106E-02 1.287917793E-01 -8.525008336E-03 9.344808012E-02 3.534369916E-02
 2.800000000E+01 4.019441491E-08 5.145400550E-08 1.623770451E-08 1.952186146E-08 1.006369743E-07 7.645094229E-07 -7.175900042E-02 1.446492076E-01 -4.132099450E-02 1.104372367E-01 3.421196714E-02
 2.900000000E+01 3.237615331E-08 5.984679774E-08 1.832482432E-08 2.145336886E-08 8.318345124E-08 7.646428912E-07 -1.902176440E-02 1.325514466E-01 -3.585809097E-02 1.003032178E-01 3.224822879E-02
 3.000000000E+01 2.917890285E-08 5.892059818E-08 1.724391652E-08 1.891677037E-08 7.510471534E-08 7.832354640E-07 -4.911621101E-03 1.220102608E-01 -2.613717131E-02 9.018254280E-02 3.182771802E-02
 3.100000000E+01 2.772448049E-08 5.649839707E-08 1.674871797E-08 1.818523288E-08 7.218757503E-08 7.383951584E-07 1.679189503E-02 9.930683672E-02 -8.737561293E-03 6.810308248E-02 3.120375052E-02
 3.200000000E+01 2.764778628E-08 4.862353364E-08 1.739565469E-08 1.913406500E-08 7.259567525E-08 7.534163728E-07 3.559698910E-02 6.017836183E-02 4.787950311E-03 3.013899177E-02 3.003937006E-02
 3.300000000E+01 2.708965852E-08 4.569143286E-08 1.585405407E-08 1.692630036E-08 7.063056273E-08 7.711754506E-07 2.703566290E-02 5.355501920E-02 1.312010828E-02 2.377660200E-02 2.977841720E-02
 3.400000000E+01 2.699908386E-08 4.347607785E-08 1.573813790E-08 1.637769032E-08 7.039183458E-08 8.314105457E-07 -8.919419488E-04 4.509926960E-02 1.614170708E-02 1.584524103E-02 2.925402671E-02
 3.500000000E+01 2.950751998E-08 3.994564679E-08 1.632664670E-08 1.749651979E-08 7.693373050E-08 7.804902111E-07 -1.928640902E-02 4.893150926E-02 8.056326769E-03 2.048330382E-02 2.844820358E-02
 3.600000000E+01 2.987110292E-08 3.837275742E-08 1.473254585E-08 1.592390930E-08 7.761531862E-08 7.932822541E-07 -2.743575163E-02 5.077423900E-02 1.098728366E-02 2.249606140E-02 2.827817574E-02
 3.700000000E+01 3.184650410E-08 3.853064712E-08 1.462284516E-08 1.562849050E-08 8.294724552E-08 8.377725180E-07 -3.350258991E-02 5.606625602E-02 3.696863772E-03 2.812132239E-02 2.794493362E-02
 3.800000000E+01 2.941130006E-08 4.133790910E-08 1.557506302E-08 1.639131852E-08 7.751504683E-08 7.983449564E-07 -3.247593716E-02 6.842673570E-02 -8.504766971E-03 4.098038375E-02 2.744635195E-02
 3.900000000E+01 2.140942890E-08 4.528367015E-08 1.795360838E-08 1.779781655E-08 5.858693086E-08 8.526025113E-07 -1.612284407E-02 8.205947280E-02 -1.946697198E-02 5.541374162E-02 2.664572746E-02
 4.000000000E+01 2.000184551E-08 4.394564712E-08 1.593000221E-08 1.548351669E-08 5.486120358E-08 8.772594242E-07 -8.203074336E-03 8.368979394E-02 -1.772323437E-02 5.719450116E-02 2.649529278E-02
 4.100000000E+01 2.241601749E-08 4.281928767E-08 1.575544140E-08 1.507761560E-08 6.108271577E-08 9.695304470E-07 1.218080986E-02 8.432231098E-02 -1.978315040E-02 5.810154602E-02 2.622076124E-02
 4.200000000E+01 2.798318555E-08 3.926802350E-08 1.645865666E-08 1.647494940E-08 7.509370192E-08 1.007150672E-06 1.808016375E-02 7.176406682E-02 -3.701820271E-03 4.591702670E-02 2.584704012E-02
 4.300000000E+01 2.844353020E-08 3.819417316E-08 1.456264620E-08 1.446527964E-08 7.607408747E-08 1.036463345E-06 1.699790359E-02 6.853097677E-02 -7.537535392E-03 4.274798930E-02 2.578298561E-02
 4.400000000E+01 2.799579590E-08 3.909288893E-08 1.431190277E-08 1.396539417E-08 7.507262723E-08 1.111605457E-06 1.086958870E-02 6.007435918E-02 -1.965282485E-03 3.440512344E-02 2.566923201E-02
 4.500000000E+01 2.299420565E-08 4.083296545E-08 1.579961406E-08 1.507220659E-08 6.235009664E-08 1.189029945E-06 3.623103490E-03 4.537249729E-02 3.753944999E-03 1.988151111E-02 2.549098805E-02
 4.600000000E+01 1.391486837E-08 3.982797381E-08 1.842316877E-08 1.684770012E-08 3.850821528E-08 1.436269486E-06 -9.079671465E-03 3.103716671E-02 -3.026120597E-03 5.852349568E-03 2.518481761E-02
 4.700000000E+01 1.147505557E-08 3.727160802E-08 1.600448662E-08 1.442343045E-08 3.111442126E-08 1.512363269E-06 -1.101751067E-02 2.765946276E-02 -1.584450714E-02 2.512078267E-03 2.514738403E-02
 4.800000000E+01 1.259104998E-08 3.300362650E-08 1.584608533E-08 1.425275808E-08 3.099818358E-08 1.683578034E-06 -1.758618280E-02 2.461853437E-02 -8.738091215E-03 -4.346862552E-04 2.505321987E-02
 4.900000000E+01 1.957228868E-08 2.373631069E-08 1.707831565E-08 1.583017450E-08 4.890964433E-08 1.771364850E-06 -5.573118571E-03 4.010992870E-02 -9.769828059E-03 1.526580378E-02 2.484412491E-02
 5.000000000E+01 2.015883283E-08 2.040530056E-08 1.459500343E-08 1.354999668E-08 5.021545135E-08 1.811304969E-06 -1.761812018E-03 4.535816237E-02 -1.965042576E-02 2.055388317E-02 2.480427735E-02
 5.100000000E+01 1.902871105E-08 1.891645773E-08 1.405351657E-08 1.317554066E-08 4.778887330E-08 1.900168513E-06 1.170448144E-03 5.985546857E-02 -1.018708758E-02 3.514100611E-02 2.471446246E-02
 5.200000000E+01 1.641840441E-08 2.060955318E-08 1.509846648E-08 1.423805340E-08 4.160556344E-08 1.985801418E-06 6.857490633E-03 7.722488791E-02 -8.070744574E-03 5.267092586E-02 2.455396205E-02
 5.300000000E+01 1.545849493E-08 1.957027962E-08 1.299357866E-08 1.220893697E-08 3.891132394E-08 2.027691153E-06 8.266782388E-03 8.073099703E-02 -1.545582432E-02 5.621060729E-02 2.452038601E-02
 5.400000000E+01 1.267527860E-08 1.981546127E-08 1.216085455E-08 1.149827611E-08 3.176113594E-08 2.111396952E-06 4.932786338E-03 8.603436500E-02 -1.029250026E-02 6.158147007E-02 2.445289493E-02
 5.500000000E+01 1.033542318E-08 2.007250011E-08 1.266713934E-08 1.212084566E-08 2.588277859E-08 2.206678801E-06 4.571994301E-03 8.961682767E-02 -7.202017121E-03 6.527191401E-02 2.434491366E-02
 5.600000000E+01 9.798363898E-09 1.905727842E-08 1.346615086E-08 1.301255281E-08 2.461069926E-08 2.453770776E-06 5.927674647E-05 8.097367734E-02 -1.217703987E-02 5.680749938E-02 2.416618168E-02
 5.700000000E+01 1.021523843E-08 1.695293861E-08 1.085017942E-08 1.043578557E-08 2.527045773E-08 2.514831976E-06 -1.182405511E-03 7.834123075E-02 -8.678516373E-03 5.420183390E-02 2.413939685E-02
 5.800000000E+01 8.604768453E-09 1.605329025E-08 1.003824401E-08 9.507189702E-09 2.125192822E-08 2.669687319E-06 -2.146971412E-03 6.803789735E-02 -8.694839664E-03 4.395660013E-02 2.408129536E-02
 5.900000000E+01 7.426736115E-09 1.587048359E-08 1.025239182E-08 9.743043705E-09 1.869704747E-08 2.571960067E-06 9.860167047E-04 6.015515327E-02 -1.361876447E-02 3.619573638E-02 2.395941690E-02
 6.000000000E+01 7.438828220E-09 1.429414365E-08 8.431722875E-09 7.995076601E-09 1.839687691E-08 2.570164725E-06 1.447082730E-03 5.894419178E-02 -7.469444070E-03 3.501223028E-02 2.393196151E-02
 6.100000000E+01 6.582912881E-09 1.348446954E-08 7.766504773E-09 7.380640987E-09 1.634850122E-08 2.620434998E-06 4.112513736E-03 5.826580897E-02 -7.643571123E-03 3.439431265E-02 2.387149818E-02
 6.200000000E+01 6.785393580E-09 1.327843080E-08 7.990048623E-09 7.664140433E-09 1.712132480E-08 2.479899422E-06 5.066336133E-03 6.233407930E-02 -9.284407832E-03 3.857797384E-02 2.375610732E-02
 6.300000000E+01 6.665135555E-09 1.220194346E-08 6.818319687E-09 6.574763400E-09 1.652115422E-08 2.481571073E-06 4.614936188E-03 6.341362745E-02 -4.203004297E-03 3.968582675E-02 2.372779697E-02
 6.400000000E+01 6.137765407E-09 1.208357059E-08 6.365159955E-09 6.281096976E-09 1.517303971E-08 2.515419283E-06 2.962714760E-03 6.606347859E-02 -3.289764747E-03 4.239644110E-02 2.366703562E-02
 6.500000000E+01 5.517516666E-09 1.289775575E-08 6.646652118E-09 6.618877002E-09 1.382820081E-08 2.434520411E-06 2.053241245E-03 7.066758722E-02 -5.198705941E-03 4.710984603E-02 2.355774119E-02
 6.600000000E+01 4.705937862E-09 1.376702308E-08 7.096587762E-09 7.123239332E-09 1.226708779E-08 2.471872904E-06 -6.669607246E-04 7.375647128E-02 -5.379713606E-03 5.041989312E-02 2.333658189E-02
 6.700000000E+01 4.369151263E-09 1.278892103E-08 6.057494506E-09 6.158944910E-09 1.116635229E-08 2.503344831E-06 -1.192484866E-03 7.424161583E-02 -3.171293298E-03 5.095930398E-02 2.328230999E-02
 6.800000000E+01 4.002245202E-09 1.247260339E-08 5.872347053E-09 6.089369897E-09 1.061079136E-08 2.463503051E-06 -2.147359075E-03 7.401406765E-02 -2.626277739E-03 5.082450062E-02 2.318957075E-02
 6.900000000E+01 5.069950237E-09 1.177884190E-08 6.118740625E-09 6.448037215E-09 1.373761638E-08 2.530636493E-06 -3.387209144E-04 6.998259574E-02 -2.838581568E-03 4.698328301E-02 2.299931087E-02
 7.000000000E+01 5.095957434E-09 1.066369748E-08 5.262166258E-09 5.645195422E-09 1.356555579E-08 2.564363058E-06 8.515934460E-04 6.928766519E-02 -4.644499626E-03 4.633718729E-02 2.295047604E-02
 7.100000000E+01 5.091778110E-09 1.036166086E-08 5.100491141E-09 5.544586124E-09 1.361759328E-08 2.542340781E-06 1.095739892E-03 6.802283973E-02 -3.535133088E-03 4.515171424E-02 2.287112549E-02
 7.200000000E+01 5.218117050E-09 1.075664002E-08 5.361452171E-09 5.832684558E-09 1.406678596E-08 2.616305892E-06 2.221676987E-03 6.532974541E-02 -1.984909875E-03 4.261085391E-02 2.271889150E-02
 7.300000000E+01 5.260547109E-09 1.169866959E-08 5.761360278E-09 6.232838690E-09 1.445098086E-08 2.831280199E-06 2.071848838E-03 6.287634373E-02 -4.431718262E-04 4.042186216E-02 2.245448343E-02
 7.400000000E+01 5.252057900E-09 1.092204460E-08 4.914614937E-09 5.452149399E-09 1.429521923E-08 2.916754056E-06 2.323618159E-03 6.222814322E-02 -4.609522410E-03 3.984071314E-02 2.238742821E-02
 7.500000000E+01 5.037671613E-09 1.096704150E-08 4.845041701E-09 5.427482463E-09 1.392270210E-08 2.879123031E-06 2.268474316E-03 6.162346900E-02 -4.025818780E-03 3.933968395E-02 2.228378318E-02
 7.600000000E+01 4.857569014E-09 1.134503869E-08 5.114626944E-09 5.737788911E-09 1.361305291E-08 3.092290399E-06 7.076721522E-04 5.984429643E-02 -3.403981216E-03 3.775184229E-02 2.209245600E-02
 7.700000000E+01 4.541600429E-09 1.066969268E-08 4.387492591E-09 5.013513604E-09 1.268031102E-08 3.174434823E-06 1.598302042E-03 5.933833495E-02 -7.530479692E-03 3.729348630E-02 2.204484679E-02
 7.800000000E+01 3.870329834E-09 1.055457499E-08 4.302508572E-09 4.937459330E-09 1.107847147E-08 3.155298828E-06 1.804077998E-03 5.869789049E-02 -8.170018904E-03 3.672556952E-02 2.197231725E-02
 7.900000000E+01 3.270719251E-09 1.053384846E-08 4.545694932E-09 5.161368222E-09 9.572396209E-09 3.319800044E-06 1.114980783E-03 5.775484443E-02 -6.834520027E-03 3.592159972E-02 2.183324657E-02
 8.000000000E+01 2.992526671E-09 9.954479907E-09 3.976280638E-09 4.527290098E-09 8.727961465E-09 3.387613788E-06 1.881016768E-03 5.752936006E-02 -1.057799440E-02 3.573118150E-02 2.179817855E-02
 8.100000000E+01 2.324259452E-09 9.669778755E-09 3.895249012E-09 4.469636661E-09 7.030552585E-09 3.383139074E-06 2.099109348E-03 5.719680339E-02 -1.165434625E-02 3.545359150E-02 2.174321376E-02
 8.200000000E+01 2.407528399E-09 9.370336507E-09 4.126626152E-09 4.688479383E-09 6.862004298E-09 3.510215947E-06 1.575045171E-03 5.694434047E-02 -1.050199661E-02 3.530802205E-02 2.163632028E-02
 8.300000000E+01 4.255368058E-09 7.660008627E-09 4.629055805E-09 5.165102124E-09 1.087938273E-08 3.825774002E-06 1.898166141E-03 6.060300395E-02 -9.657485411E-03 3.917175159E-02 2.143125050E-02
 8.400000000E+01 4.439829837E-09 6.763041238E-09 4.001812659E-09 4.530277931E-09 1.123284754E-08 3.957669833E-06 3.107105149E-03 6.168353558E-02 -1.608610898E-02 4.030912742E-02 2.137440629E-02
 8.500000000E+01 4.225307215E-09 6.538271702E-09 4.018173794E-09 4.528253772E-09 1.074948663E-08 3.879191354E-06 2.578960266E-03 6.342227757E-02 -1.362118963E-02 4.213785008E-02 2.128442936E-02
 8.600000000E+01 3.931078574E-09 6.857121981E-09 4.321631497E-09 4.798557995E-09 1.015760009E-08 4.067448117E-06 2.078914782E-03 6.553003937E-02 -1.098553929E-02 4.442268610E-02 2.110735327E-02
 8.700000000E+01 3.703633844E-09 6.304533340E-09 3.700843632E-09 4.142375332E-09 9.487766128E-09 4.170040484E-06 3.524201689E-03 6.593644619E-02 -1.808596216E-02 4.487734288E-02 2.105910704E-02
 8.800000000E+01 3.124023262E-09 6.208334291E-09 3.647258939E-09 4.071881499E-09 8.028465004E-09 4.120140147E-06 3.657126334E-03 6.627279520E-02 -1.574716717E-02 4.528616741E-02 2.098662406E-02
 8.900000000E+01 2.711153302E-09 6.274062159E-09 3.896381440E-09 4.313883917E-09 7.075927844E-09 4.264142717E-06 2.400968457E-03 6.629212946E-02 -1.192560047E-02 4.544635862E-02 2.084576897E-02
 9.000000000E+01 2.501633123E-09 5.751103593E-09 3.401095627E-09 3.781511548E-09 6.429712318E-09 4.344726221E-06 2.933190670E-03 6.616897881E-02 -1.463394519E-02 4.535985366E-02 2.080912888E-02
 9.100000000E+01 2.146533395E-09 5.538484782E-09 3.336968479E-09 3.714161423E-09 5.509508849E-09 4.326474027E-06 3.627270227E-03 6.594581157E-02 -1.592340134E-02 4.519291222E-02 2.075289935E-02
 9.200000000E+01 2.209300076E-09 5.437830186E-09 3.536914761E-09 3.929851999E-09 5.730843355E-09 4.444313618E-06 2.880423330E-03 6.529719383E-02 -1.366297808E-02 4.465385154E-02 2.064334229E-02
 9.300000000E+01 2.297456003E-09 5.396009861E-09 3.820516348E-09 4.225282346E-09 6.011593001E-09 4.744137186E-06 1.534451498E-03 6.441052258E-02 -8.720812388E-03 4.398300126E-02 2.042751946E-02
 9.400000000E+01 2.370307506E-09 4.825768674E-09 3.257567327E-09 3.588556119E-09 6.056150692E-09 4.893651749E-06 2.869472140E-03 6.423845142E-02 -1.636183448E-02 4.387246817E-02 2.036598139E-02
 9.500000000E+01 1.923531334E-09 4.673099241E-09 3.241803048E-09 3.550612915E-09 4.946592469E-09 4.761057880E-06 2.794114873E-03 6.423828751E-02 -1.334592327E-02 4.396549985E-02 2.027278952E-02
 9.600000000E+01 1.909449487E-09 4.725070557E-09 3.463064502E-09 3.784837332E-09 4.979083812E-09 4.926944257E-06 1.179160899E-03 6.444361061E-02 -8.907952346E-03 4.436184093E-02 2.008176595E-02
 9.700000000E+01 1.828696528E-09 4.338219561E-09 3.023122419E-09 3.281146022E-09 4.688810229E-09 5.038893505E-06 1.588984276E-03 6.446862221E-02 -1.112627611E-02 4.443906248E-02 2.002955973E-02
 9.800000000E+01 1.494858681E-09 4.213688953E-09 2.946915378E-09 3.161138906E-09 3.864715215E-09 4.938308393E-06 1.992781647E-03 6.453260779E-02 -1.237886678E-02 4.458203912E-02 1.995057054E-02
 9.900000000E+01 1.583189913E-09 4.220879646E-09 3.109017266E-09 3.334811982E-09 4.158684508E-09 4.999498742E-06 1.080889837E-03 6.484740227E-02 -9.017270058E-03 4.505516216E-02 1.979224198E-02
 1.000000000E+02 1.863843080E-09 4.158780431E-09 3.345882238E-09 3.561827278E-09 5.019696214E-09 5.130044428E-06 1.089364989E-03 6.462336332E-02 -7.570277900E-03 4.514160007E-02 1.948176511E-02
 1.010000000E+02 2.031265600E-09 3.707796958E-09 2.846318736E-09 3.003866933E-09 5.353145038E-09 5.153033726E-06 1.755646663E-03 6.444953382E-02 -1.002092473E-02 4.504111037E-02 1.940842718E-02
 1.020000000E+02 1.751922718E-09 3.602308674E-09 2.815401690E-09 2.930799159E-09 4.706472101E-09 4.893962796E-06 1.290764892E-03 6.399475783E-02 -8.382259868E-03 4.469240084E-02 1.930235326E-02
 1.030000000E+02 1.844092545E-09 3.781387647E-09 2.921374254E-09 3.023229000E-09 4.997920300E-09 4.756782801E-06 1.078539994E-03 6.267406046E-02 -7.137735374E-03 4.357419908E-02 1.909985952E-02
 1.040000000E+02 1.875146705E-09 3.538895177E-09 2.546355127E-09 2.598774973E-09 5.029362704E-09 4.803648608E-06 1.245379099E-03 6.238729879E-02 -8.590837941E-03 4.334070534E-02 1.904659346E-02
 1.050000000E+02 1.701792374E-09 3.557122152E-09 2.508345531E-09 2.525074372E-09 4.633539330E-09 4.613867077E-06 9.671981097E-04 6.206890568E-02 -6.960315630E-03 4.310083389E-02 1.896806806E-02
 1.060000000E+02 1.713210351E-09 3.718834352E-09 2.582030145E-09 2.590334391E-09 4.702120915E-09 4.441224064E-06 7.907779072E-04 6.145280600E-02 -5.478873383E-03 4.263271764E-02 1.882008836E-02
 1.070000000E+02 1.569739005E-09 3.932768777E-09 2.665051291E-09 2.654261921E-09 4.391621289E-09 4.171427463E-06 5.543424049E-04 6.060582772E-02 -4.223592114E-03 4.205816984E-02 1.854765788E-02
 1.080000000E+02 1.503135505E-09 3.657277814E-09 2.288319978E-09 2.228403462E-09 4.145392474E-09 4.133305538E-06 7.065347163E-04 6.044036895E-02 -5.677324254E-03 4.195215181E-02 1.848821715E-02
 1.090000000E+02 1.115296411E-09 3.586835495E-09 2.242433794E-09 2.155541301E-09 3.215597566E-09 3.843675131E-06 3.695607884E-04 6.033147499E-02 -5.352690816E-03 4.192968458E-02 1.840178855E-02
 1.100000000E+02 1.011802087E-09 3.555731487E-09 2.295739598E-09 2.192750204E-09 2.944348987E-09 3.589408834E-06 5.231801770E-04 6.018577144E-02 -4.733318463E-03 4.194747657E-02 1.823829487E-02
 1.110000000E+02 1.028679586E-09 3.453019648E-09 2.326576043E-09 2.208589756E-09 2.886201944E-09 3.279086286E-06 -3.625943791E-04 5.997837335E-02 -3.182150424E-03 4.203829542E-02 1.794007607E-02
 1.120000000E+02 1.144723538E-09 3.119172476E-09 1.940740235E-09 1.820446238E-09 3.046724206E-09 3.176329756E-06 -1.607940212E-04 5.999196693E-02 -3.829380497E-03 4.210798815E-02 1.788397692E-02
 1.130000000E+02 9.165657677E-10 2.912806663E-09 1.920985815E-09 1.773859393E-09 2.400051491E-09 2.932953294E-06 4.525793483E-04 6.002886593E-02 -5.602982827E-03 4.222697392E-02 1.780189015E-02
 1.140000000E+02 1.318028242E-09 2.587832837E-09 1.995247967E-09 1.854650544E-09 3.345424604E-09 2.765675163E-06 7.173424819E-04 6.069638208E-02 -5.754087120E-03 4.304769263E-02 1.764868759E-02
 1.150000000E+02 1.343050227E-09 2.302651181E-09 1.754022594E-09 1.621889512E-09 3.367601087E-09 2.772416565E-06 4.581408866E-04 6.085295230E-02 -4.844816402E-03 4.324458539E-02 1.760836691E-02
 1.160000000E+02 1.295136776E-09 2.218299322E-09 1.722192167E-09 1.573195796E-09 3.256494630E-09 2.624752369E-06 4.588925804E-04 6.111483648E-02 -4.804527387E-03 4.356698692E-02 1.754784957E-02
 1.170000000E+02 1.249286008E-09 2.288330636E-09 1.760490198E-09 1.619261947E-09 3.191202858E-09 2.532385224E-06 5.623804173E-04 6.151594967E-02 -4.633220378E-03 4.408363998E-02 1.743230969E-02
 1.180000000E+02 1.064100918E-09 2.444590974E-09 1.809669525E-09 1.666909832E-09 2.780724762E-09 2.513233085E-06 6.317590014E-04 6.169902533E-02 -4.406279419E-03 4.447946697E-02 1.721956022E-02
 1.190000000E+02 1.024548113E-09 2.157563683E-09 1.523284610E-09 1.387294057E-09 2.612296823E-09 2.517237590E-06 3.589526459E-04 6.169580296E-02 -3.730779514E-03 4.452525079E-02 1.717055030E-02
 1.200000000E+02 8.309727906E-10 2.121931741E-09 1.479666500E-09 1.333936406E-09 2.143280220E-09 2.361573024E-06 7.605063729E-04 6.167263538E-02 -4.803495947E-03 4.457397386E-02 1.709866151E-02
 1.210000000E+02 8.531436113E-10 2.187515058E-09 1.523947635E-09 1.382621240E-09 2.235749585E-09 2.384870641E-06 7.351626991E-04 6.149459258E-02 -4.682459868E-03 4.453585669E-02 1.695873588E-02
 1.220000000E+02 8.852064082E-10 2.286823841E-09 1.560197527E-09 1.421402329E-09 2.341616678E-09 2.394013563E-06 6.155586452E-04 6.105351076E-02 -4.280266818E-03 4.433936626E-02 1.671414450E-02
 1.230000000E+02 8.079559244E-10 2.085286166E-09 1.355804136E-09 1.223132595E-09 2.103408336E-09 2.336644684E-06 5.025692517E-04 6.098224968E-02 -3.930723760E-03 4.430158809E-02 1.668066345E-02
 1.240000000E+02 7.125389723E-10 2.033966773E-09 1.293029461E-09 1.150121443E-09 1.872218380E-09 2.341787422E-06 6.981933839E-04 6.092961878E-02 -4.806507844E-03 4.431905225E-02 1.661056839E-02
 1.250000000E+02 6.907290850E-10 2.068692995E-09 1.299530816E-09 1.157031915E-09 1.841710007E-09 2.415103154E-06 6.174382870E-04 6.087706983E-02 -4.137036856E-03 4.440985993E-02 1.646720804E-02
 1.260000000E+02 6.938012942E-10 1.881898415E-09 1.087092638E-09 9.821309321E-10 1.810173789E-09 2.470007985E-06 4.252517247E-04 6.085117161E-02 -3.104632720E-03 4.442072660E-02 1.643044688E-02
 1.270000000E+02 5.532131420E-10 1.852341280E-09 1.066471467E-09 9.416331048E-10 1.468506872E-09 2.352425554E-06 2.529142657E-04 6.081358716E-02 -3.025632352E-03 4.443623498E-02 1.637735404E-02
 1.280000000E+02 5.930189118E-10 1.879884248E-09 1.095491142E-09 9.778672316E-10 1.599454680E-09 2.383045057E-06 4.364004126E-04 6.082249060E-02 -4.123876803E-03 4.455238208E-02 1.627010666E-02
 1.290000000E+02 7.178082573E-10 1.951400375E-09 1.151291174E-09 1.060547761E-09 1.951989237E-09 2.558115739E-06 6.820567069E-04 6.078983843E-02 -4.470172338E-03 4.473221302E-02 1.605762728E-02
 1.300000000E+02 6.607380199E-10 1.799360660E-09 1.004154315E-09 9.241944987E-10 1.788265758E-09 2.401410939E-06 5.714484141E-04 6.075727195E-02 -3.596592462E-03 4.473048821E-02 1.602678187E-02
 1.310000000E+02 6.451751910E-10 1.753815204E-09 9.740562801E-10 8.856437250E-10 1.761538471E-09 2.396883019E-06 6.314019556E-04 6.073503196E-02 -3.895604983E-03 4.477234557E-02 1.596268639E-02
 1.320000000E+02 7.377753408E-10 1.819742468E-09 9.924083777E-10 9.237727805E-10 2.026283141E-09 2.473686664E-06 6.089362432E-04 6.034724042E-02 -3.659461159E-03 4.451601580E-02 1.583122462E-02
 1.330000000E+02 8.281595409E-10 2.015874800E-09 1.023638729E-09 9.811979007E-10 2.285429845E-09 2.495457693E-06 6.959515740E-04 5.941051245E-02 -4.083718639E-03 4.380564392E-02 1.560486853E-02
 1.340000000E+02 7.710798666E-10 1.867000776E-09 8.854935674E-10 8.359209436E-10 2.119691977E-09 2.431371513E-06 6.949558156E-04 5.931204930E-02 -3.625870915E-03 4.373579845E-02 1.557624992E-02
 1.350000000E+02 7.037107563E-10 1.847552999E-09 8.517336836E-10 7.909855548E-10 1.961276253E-09 2.440448725E-06 8.303155191E-04 5.917139724E-02 -3.917904571E-03 4.365468770E-02 1.551670954E-02
 1.360000000E+02 6.715668577E-10 1.909560732E-09 8.621328096E-10 8.140888519E-10 1.895613000E-09 2.523871217E-06 7.720953436E-04 5.886299536E-02 -4.108421039E-03 4.346799478E-02 1.539499871E-02
 1.370000000E+02 5.900225863E-10 1.942827899E-09 8.754322822E-10 8.385002137E-10 1.689553386E-09 2.507196768E-06 6.503444747E-04 5.863372609E-02 -4.086125642E-03 4.344912618E-02 1.518460177E-02
 1.380000000E+02 5.401514236E-10 1.861294230E-09 8.519538408E-10 8.059132806E-10 1.507960201E-09 2.534741952E-06 7.890943089E-04 5.848221108E-02 -4.755562637E-03 4.353939369E-02 1.494281646E-02
 1.390000000E+02 4.858467517E-10 1.682485040E-09 7.314203687E-10 6.794125262E-10 1.332048249E-09 2.425311550E-06 7.779519656E-04 5.850434676E-02 -4.842509050E-03 4.358759522E-02 1.491675153E-02
 1.400000000E+02 4.013590849E-10 1.590287901E-09 6.904468108E-10 6.386802198E-10 1.110688874E-09 2.414964683E-06 6.536422297E-04 5.850886554E-02 -3.859651275E-03 4.364636168E-02 1.486250572E-02
 1.410000000E+02 5.094421551E-10 1.510109593E-09 7.122247792E-10 6.824303345E-10 1.339707456E-09 2.463380724E-06 7.262515719E-04 5.851672590E-02 -4.615410231E-03 4.376386851E-02 1.475285925E-02
 1.420000000E+02 6.333907843E-10 1.461420651E-09 7.668551905E-10 7.522034662E-10 1.650514281E-09 2.369191407E-06 9.492903482E-04 5.881047621E-02 -4.894640297E-03 4.424073920E-02 1.456973609E-02
 1.430000000E+02 5.927779378E-10 1.296593388E-09 6.570082256E-10 6.254880502E-10 1.520919612E-09 2.292479394E-06 1.093940809E-03 5.884087831E-02 -5.353856832E-03 4.429212585E-02 1.454875339E-02
 1.440000000E+02 5.348629872E-10 1.243972259E-09 6.216920867E-10 5.951216187E-10 1.375295877E-09 2.268382332E-06 1.121539390E-03 5.887302384E-02 -5.447039846E-03 4.436799139E-02 1.450503338E-02
 1.450000000E+02 4.488107941E-10 1.266388439E-09 6.338296554E-10 6.203329517E-10 1.180719411E-09 2.286416930E-06 8.940894040E-04 5.885065719E-02 -4.961154424E-03 4.443594068E-02 1.441471744E-02
 1.460000000E+02 4.379728247E-10 1.316739273E-09 6.742116865E-10 6.655778706E-10 1.167173691E-09 2.143377742E-06 9.420496644E-04 5.875620246E-02 -5.291219801E-03 4.450151324E-02 1.425469201E-02
 1.470000000E+02 3.952383698E-10 1.192012156E-09 5.830905203E-10 5.667388780E-10 1.034571540E-09 2.066696652E-06 9.747347794E-04 5.871697143E-02 -5.178769119E-03 4.448121786E-02 1.423575170E-02
 1.480000000E+02 3.748525379E-10 1.149130457E-09 5.559367966E-10 5.437891248E-10 9.861762518E-10 2.039196261E-06 1.317799324E-03 5.865760520E-02 -5.994287785E-03 4.446189851E-02 1.419570576E-02
 1.490000000E+02 4.381472407E-10 1.185232135E-09 5.882248022E-10 5.898330713E-10 1.155510465E-09 2.056256790E-06 8.975859964E-04 5.849481747E-02 -5.072045606E-03 4.438320547E-02 1.411161013E-02
 1.500000000E+02 4.173900947E-10 1.269590877E-09 6.383091278E-10 6.451081891E-10 1.118411364E-09 1.963672958E-06 8.215362905E-04 5.823222920E-02 -5.054884590E-03 4.427342117E-02 1.395880617E-02
 1.510000000E+02 4.174734725E-10 1.144683903E-09 5.269641390E-10 5.191115315E-10 1.098143465E-09 1.897058269E-06 9.014218813E-04 5.820745230E-02 -5.446677096E-03 4.426619411E-02 1.394125726E-02
 1.520000000E+02 3.243713353E-10 1.106463920E-09 4.956371980E-10 4.880802984E-10 8.676476759E-10 1.886426958E-06 1.164573478E-03 5.817520618E-02 -6.495714653E-03 4.427118972E-02 1.390401646E-02