TITLE     = "Surface mesh and solution"
VARIABLES = "x"
"y"
"z"
"cfx"
"Cp"
DATASETAUXDATA alpha_deg="  0.0000000E+00"
DATASETAUXDATA beta_deg="  0.0000000E+00"
DATASETAUXDATA bref="  0.7500000"
DATASETAUXDATA cref="   1.000000"
DATASETAUXDATA itranflg="           0"
DATASETAUXDATA ivisc="           2"
DATASETAUXDATA mach="  0.2000000"
DATASETAUXDATA reue_mil="   4.600000"
DATASETAUXDATA sref="  0.7500000"
DATASETAUXDATA tinf_r="   521.0000"
DATASETAUXDATA xmc="  0.0000000E+00"
DATASETAUXDATA ymc="  0.0000000E+00"
DATASETAUXDATA zmc="  0.0000000E+00"
ZONE T="Slice: Y=-0.035"
STRANDID=0, SOLUTIONTIME=0
Nodes=690, Elements=690, ZONETYPE=FELineSeg
DATAPACKING=POINT
DT=(DOUBLE DOUBLE DOUBLE DOUBLE DOUBLE )
-0.249101 -0.035000 0.020556 0.000002	0.762355
-0.249105 -0.035000 0.020678 0.000015	0.754301
-0.249105 -0.035000 0.020722 0.000022	0.750077
-0.249092 -0.035000 0.020964 0.000056	0.729949
-0.249049 -0.035000 0.021789 0.000164	0.663614
-0.249020 -0.035000 0.022018 0.000218	0.626069
-0.248932 -0.035000 0.022759 0.000416	0.535141
-0.248816 -0.035000 0.023397 0.000571	0.518958
-0.248768 -0.035000 0.023665 0.000642	0.508037
-0.248742 -0.035000 0.023776 0.000667	0.487801
-0.248542 -0.035000 0.024594 0.000924	0.384961
-0.248447 -0.035000 0.024906 0.001083	0.363069
-0.248290 -0.035000 0.025422 0.001396	0.334110
-0.248053 -0.035000 0.026074 0.001710	0.273669
-0.247992 -0.035000 0.026244 0.001766	0.245014
-0.247955 -0.035000 0.026336 0.001831	0.229042
-0.247720 -0.035000 0.026895 0.002078	0.119771
-0.247631 -0.035000 0.027093 0.002432	0.123736
-0.247337 -0.035000 0.027699 0.003077	0.099886
-0.247267 -0.035000 0.027844 0.003273	0.093341
-0.247254 -0.035000 0.027869 0.003296	0.091261
-0.247163 -0.035000 0.028038 0.003405	0.065427
-0.246909 -0.035000 0.028507 0.003703	-0.007823
-0.246844 -0.035000 0.028620 0.003810	-0.023991
-0.246495 -0.035000 0.029206 0.004273	-0.064131
-0.246397 -0.035000 0.029360 0.004294	-0.066844
-0.246070 -0.035000 0.029861 0.004297	-0.109085
-0.245817 -0.035000 0.030226 0.004534	-0.151541
-0.245640 -0.035000 0.030474 0.004696	-0.181990
-0.245279 -0.035000 0.030957 0.005000	-0.233892
-0.245179 -0.035000 0.031085 0.004985	-0.238406
-0.244759 -0.035000 0.031609 0.004805	-0.270096
-0.244462 -0.035000 0.031956 0.005099	-0.292818
-0.244273 -0.035000 0.032177 0.005211	-0.309278
-0.244065 -0.035000 0.032406 0.005543	-0.321468
-0.243729 -0.035000 0.032776 0.005915	-0.347481
-0.243537 -0.035000 0.032978 0.005903	-0.343917
-0.243177 -0.035000 0.033348 0.005939	-0.356685
-0.242914 -0.035000 0.033610 0.005882	-0.371400
-0.242562 -0.035000 0.033950 0.005750	-0.396365
-0.242283 -0.035000 0.034212 0.005992	-0.418111
-0.241874 -0.035000 0.034584 0.006359	-0.417145
-0.241631 -0.035000 0.034802 0.006473	-0.419461
-0.241126 -0.035000 0.035238 0.006093	-0.419807
-0.241099 -0.035000 0.035261 0.006076	-0.420815
-0.240540 -0.035000 0.035723 0.006223	-0.446733
-0.240491 -0.035000 0.035763 0.006233	-0.447732
-0.240069 -0.035000 0.036100 0.006383	-0.483837
-0.239680 -0.035000 0.036400 0.006838	-0.481824
-0.239548 -0.035000 0.036502 0.006963	-0.479965
-0.239506 -0.035000 0.036533 0.007006	-0.481841
-0.238897 -0.035000 0.036985 0.007337	-0.497896
-0.238704 -0.035000 0.037124 0.007274	-0.495871
-0.238138 -0.035000 0.037525 0.007148	-0.503392
-0.237854 -0.035000 0.037721 0.007201	-0.514229
-0.237207 -0.035000 0.038157 0.006899	-0.535866
-0.237196 -0.035000 0.038164 0.006892	-0.536182
-0.237158 -0.035000 0.038189 0.006884	-0.536864
-0.236456 -0.035000 0.038643 0.006685	-0.547836
-0.236316 -0.035000 0.038730 0.006735	-0.546066
-0.235672 -0.035000 0.039130 0.006894	-0.530566
-0.234994 -0.035000 0.039538 0.007030	-0.531626
-0.234833 -0.035000 0.039633 0.007051	-0.532358
-0.234492 -0.035000 0.039830 0.006900	-0.536235
-0.233998 -0.035000 0.040116 0.006724	-0.542183
-0.233591 -0.035000 0.040343 0.006695	-0.545644
-0.233110 -0.035000 0.040610 0.006656	-0.545914
-0.232599 -0.035000 0.040884 0.006755	-0.543115
-0.232162 -0.035000 0.041118 0.007138	-0.535866
-0.231741 -0.035000 0.041336 0.006960	-0.543556
-0.231073 -0.035000 0.041678 0.006766	-0.548260
-0.230246 -0.035000 0.042087 0.006189	-0.548494
-0.229856 -0.035000 0.042277 0.006295	-0.549799
-0.228784 -0.035000 0.042782 0.006954	-0.545817
-0.228621 -0.035000 0.042858 0.006935	-0.544080
-0.227501 -0.035000 0.043364 0.007041	-0.537075
-0.227442 -0.035000 0.043390 0.007053	-0.538022
-0.227102 -0.035000 0.043538 0.007023	-0.540353
-0.226076 -0.035000 0.043982 0.006781	-0.546264
-0.225608 -0.035000 0.044177 0.006703	-0.546806
-0.224792 -0.035000 0.044516 0.006233	-0.540859
-0.224437 -0.035000 0.044657 0.006197	-0.544893
-0.223213 -0.035000 0.045144 0.006327	-0.550175
-0.222695 -0.035000 0.045344 0.006546	-0.547383
-0.221564 -0.035000 0.045772 0.006464	-0.537288
-0.221320 -0.035000 0.045862 0.006509	-0.534650
-0.220741 -0.035000 0.046071 0.006272	-0.529259
-0.219960 -0.035000 0.046354 0.006179	-0.526660
-0.219001 -0.035000 0.046690 0.006272	-0.529009
-0.218669 -0.035000 0.046805 0.006303	-0.527847
-0.217571 -0.035000 0.047175 0.006039	-0.523363
-0.217111 -0.035000 0.047329 0.005991	-0.519376
-0.216616 -0.035000 0.047490 0.006122	-0.520883
-0.215655 -0.035000 0.047801 0.006108	-0.513083
-0.214685 -0.035000 0.048106 0.006616	-0.507739
-0.214174 -0.035000 0.048265 0.006776	-0.507623
-0.213489 -0.035000 0.048471 0.006711	-0.508962
-0.212664 -0.035000 0.048721 0.006432	-0.510628
-0.212049 -0.035000 0.048900 0.006274	-0.507236
-0.210986 -0.035000 0.049209 0.006249	-0.501712
-0.209687 -0.035000 0.049574 0.006664	-0.500208
-0.209266 -0.035000 0.049692 0.006692	-0.500299
-0.208998 -0.035000 0.049765 0.006760	-0.500237
-0.207542 -0.035000 0.050156 0.006837	-0.498392
-0.206786 -0.035000 0.050353 0.006546	-0.499262
-0.205798 -0.035000 0.050609 0.005852	-0.498938
-0.204692 -0.035000 0.050886 0.006200	-0.494203
-0.204121 -0.035000 0.051029 0.006304	-0.492077
-0.203314 -0.035000 0.051224 0.006522	-0.484832
-0.202392 -0.035000 0.051447 0.006507	-0.475330
-0.200792 -0.035000 0.051820 0.006366	-0.479839
-0.200551 -0.035000 0.051876 0.006277	-0.479756
-0.200255 -0.035000 0.051943 0.006334	-0.479804
-0.198526 -0.035000 0.052331 0.005854	-0.472445
-0.196969 -0.035000 0.052669 0.006483	-0.470457
-0.196497 -0.035000 0.052769 0.006585	-0.469615
-0.195227 -0.035000 0.053031 0.006494	-0.468009
-0.194393 -0.035000 0.053204 0.006151	-0.466602
-0.193938 -0.035000 0.053294 0.006239	-0.465986
-0.192064 -0.035000 0.053664 0.005975	-0.461159
-0.190880 -0.035000 0.053890 0.005958	-0.453498
-0.189698 -0.035000 0.054114 0.005801	-0.446964
-0.188260 -0.035000 0.054377 0.005819	-0.443572
-0.187548 -0.035000 0.054506 0.005794	-0.441886
-0.186515 -0.035000 0.054686 0.005955	-0.441934
-0.185421 -0.035000 0.054877 0.006032	-0.444376
-0.184619 -0.035000 0.055011 0.006032	-0.440749
-0.183067 -0.035000 0.055272 0.005582	-0.433022
-0.181146 -0.035000 0.055581 0.005702	-0.427807
-0.180661 -0.035000 0.055658 0.005607	-0.426080
-0.180042 -0.035000 0.055754 0.005643	-0.426366
-0.178009 -0.035000 0.056065 0.005595	-0.427392
-0.176530 -0.035000 0.056283 0.005695	-0.427032
-0.174969 -0.035000 0.056509 0.005658	-0.423343
-0.173399 -0.035000 0.056727 0.005576	-0.417563
-0.172155 -0.035000 0.056897 0.005524	-0.415051
-0.170351 -0.035000 0.057134 0.005483	-0.413104
-0.169201 -0.035000 0.057281 0.005604	-0.411742
-0.167188 -0.035000 0.057532 0.005316	-0.405932
-0.166097 -0.035000 0.057666 0.005181	-0.402456
-0.163719 -0.035000 0.057947 0.004939	-0.398826
-0.163414 -0.035000 0.057983 0.004919	-0.398303
-0.162764 -0.035000 0.058055 0.004970	-0.397651
-0.160398 -0.035000 0.058315 0.005234	-0.395396
-0.159839 -0.035000 0.058374 0.005180	-0.394588
-0.156995 -0.035000 0.058667 0.005317	-0.391340
-0.155980 -0.035000 0.058769 0.005309	-0.388281
-0.153275 -0.035000 0.059031 0.005291	-0.380384
-0.151602 -0.035000 0.059186 0.005206	-0.377864
-0.150075 -0.035000 0.059326 0.004985	-0.378397
-0.147014 -0.035000 0.059587 0.005559	-0.381620
-0.146782 -0.035000 0.059607 0.005572	-0.381615
-0.146432 -0.035000 0.059634 0.005616	-0.381050
-0.143221 -0.035000 0.059889 0.005641	-0.375515
-0.141029 -0.035000 0.060048 0.005477	-0.372623
-0.139295 -0.035000 0.060174 0.005179	-0.368462
-0.137007 -0.035000 0.060328 0.005075	-0.357282
-0.134430 -0.035000 0.060498 0.005015	-0.347774
-0.131366 -0.035000 0.060686 0.005146	-0.349058
-0.131341 -0.035000 0.060688 0.005147	-0.349057
-0.128276 -0.035000 0.060861 0.005096	-0.347818
-0.124808 -0.035000 0.061038 0.004713	-0.345042
-0.124216 -0.035000 0.061068 0.004651	-0.343842
-0.122934 -0.035000 0.061126 0.004500	-0.340486
-0.119731 -0.035000 0.061273 0.004169	-0.331560
-0.117996 -0.035000 0.061344 0.003962	-0.328033
-0.115305 -0.035000 0.061451 0.003714	-0.322401
-0.112175 -0.035000 0.061560 0.003416	-0.319995
-0.110690 -0.035000 0.061611 0.003408	-0.319123
-0.109100 -0.035000 0.061657 0.003234	-0.317767
-0.104414 -0.035000 0.061784 0.003265	-0.322992
-0.100493 -0.035000 0.061864 0.003593	-0.311992
-0.098385 -0.035000 0.061909 0.003635	-0.307823
-0.096243 -0.035000 0.061945 0.003462	-0.299632
-0.092050 -0.035000 0.062003 0.002675	-0.286652
-0.090204 -0.035000 0.062025 0.002333	-0.283367
-0.086665 -0.035000 0.062044 0.002056	-0.284179
-0.082341 -0.035000 0.062067 0.001739	-0.287443
-0.077443 -0.035000 0.062055 0.001715	-0.287621
-0.072967 -0.035000 0.062036 0.001602	-0.293115
-0.067040 -0.035000 0.061977 0.001785	-0.295006
-0.064060 -0.035000 0.061944 0.002094	-0.294554
-0.058529 -0.035000 0.061851 0.002716	-0.285754
-0.056647 -0.035000 0.061820 0.002942	-0.282920
-0.055323 -0.035000 0.061789 0.003091	-0.281149
-0.050072 -0.035000 0.061664 0.003542	-0.272113
-0.045313 -0.035000 0.061530 0.003678	-0.261234
-0.044021 -0.035000 0.061493 0.003692	-0.259101
-0.038988 -0.035000 0.061328 0.003435	-0.256194
-0.036532 -0.035000 0.061246 0.003398	-0.252833
-0.031543 -0.035000 0.061056 0.003415	-0.247698
-0.030169 -0.035000 0.061004 0.003428	-0.245745
-0.029531 -0.035000 0.060978 0.003421	-0.244626
-0.023869 -0.035000 0.060743 0.003238	-0.232735
-0.020537 -0.035000 0.060590 0.003407	-0.230401
-0.017093 -0.035000 0.060431 0.003462	-0.227682
-0.011855 -0.035000 0.060164 0.003271	-0.226901
-0.011564 -0.035000 0.060149 0.003267	-0.226768
-0.010735 -0.035000 0.060104 0.003390	-0.225360
-0.006254 -0.035000 0.059860 0.004072	-0.217761
-0.005315 -0.035000 0.059809 0.004010	-0.215882
0.000007 -0.035000 0.059501 0.002983	-0.213000
0.000583 -0.035000 0.059468 0.002994	-0.212806
0.001565 -0.035000 0.059407 0.003097	-0.211948
0.006488 -0.035000 0.059104 0.003456	-0.206673
0.009161 -0.035000 0.058934 0.003608	-0.204255
0.013153 -0.035000 0.058669 0.003393	-0.201759
0.015939 -0.035000 0.058484 0.003046	-0.199239
0.017440 -0.035000 0.058378 0.003189	-0.197686
0.023920 -0.035000 0.057921 0.003423	-0.189384
0.027232 -0.035000 0.057675 0.003242	-0.184874
0.033300 -0.035000 0.057216 0.002933	-0.176668
0.038926 -0.035000 0.056773 0.002931	-0.170286
0.040705 -0.035000 0.056631 0.002900	-0.168642
0.042792 -0.035000 0.056459 0.002917	-0.168203
0.047330 -0.035000 0.056086 0.002945	-0.166569
0.052352 -0.035000 0.055657 0.003205	-0.162515
0.053390 -0.035000 0.055569 0.003215	-0.161498
0.054815 -0.035000 0.055444 0.003158	-0.159843
0.059971 -0.035000 0.054988 0.002958	-0.154553
0.064846 -0.035000 0.054544 0.002974	-0.155371
0.067673 -0.035000 0.054283 0.002987	-0.153009
0.071918 -0.035000 0.053881 0.003103	-0.149938
0.074845 -0.035000 0.053602 0.003158	-0.147765
0.077289 -0.035000 0.053362 0.003041	-0.146188
0.082250 -0.035000 0.052871 0.002864	-0.140961
0.084951 -0.035000 0.052595 0.002814	-0.137654
0.090850 -0.035000 0.051983 0.002672	-0.131290
0.093422 -0.035000 0.051713 0.002754	-0.127799
0.099185 -0.035000 0.051100 0.002984	-0.117464
0.102188 -0.035000 0.050779 0.003003	-0.112499
0.108531 -0.035000 0.050095 0.002902	-0.103408
0.110730 -0.035000 0.049855 0.002840	-0.099859
0.112826 -0.035000 0.049625 0.002813	-0.097450
0.116869 -0.035000 0.049174 0.002774	-0.093972
0.120276 -0.035000 0.048795 0.002756	-0.091037
0.127029 -0.035000 0.048024 0.003012	-0.086621
0.127311 -0.035000 0.047992 0.003016	-0.086451
0.129955 -0.035000 0.047683 0.003068	-0.085498
0.133775 -0.035000 0.047237 0.003131	-0.084080
0.138316 -0.035000 0.046696 0.002883	-0.079807
0.140815 -0.035000 0.046396 0.002860	-0.078324
0.145024 -0.035000 0.045882 0.002656	-0.075888
0.148177 -0.035000 0.045498 0.002502	-0.073635
0.150045 -0.035000 0.045265 0.002501	-0.072192
0.155674 -0.035000 0.044563 0.002360	-0.067402
0.161069 -0.035000 0.043876 0.002330	-0.063151
0.165340 -0.035000 0.043327 0.002288	-0.058884
0.172356 -0.035000 0.042407 0.002486	-0.050930
0.175824 -0.035000 0.041949 0.002559	-0.047389
0.184498 -0.035000 0.040782 0.002526	-0.039350
0.185137 -0.035000 0.040696 0.002520	-0.038721
0.185284 -0.035000 0.040676 0.002518	-0.038580
0.193476 -0.035000 0.039554 0.002427	-0.029793
0.195326 -0.035000 0.039298 0.002456	-0.028271
0.201104 -0.035000 0.038493 0.002432	-0.022830
0.204197 -0.035000 0.038058 0.002327	-0.020369
0.210292 -0.035000 0.037194 0.002319	-0.015326
0.213693 -0.035000 0.036707 0.002338	-0.011817
0.219791 -0.035000 0.035829 0.002335	-0.005807
0.225362 -0.035000 0.035018 0.002252	0.001412
0.235155 -0.035000 0.033576 0.002117	0.012262
0.236450 -0.035000 0.033387 0.002103	0.013822
0.237180 -0.035000 0.033279 0.002107	0.014523
0.247749 -0.035000 0.031723 0.002035	0.027088
0.253357 -0.035000 0.030885 0.001986	0.032154
0.258750 -0.035000 0.030081 0.001995	0.037989
0.264804 -0.035000 0.029160 0.002050	0.041176
0.267911 -0.035000 0.028689 0.002050	0.042912
0.270309 -0.035000 0.028315 0.002056	0.043769
0.275797 -0.035000 0.027460 0.002029	0.045236
0.280067 -0.035000 0.026787 0.001963	0.048535
0.284342 -0.035000 0.026110 0.001937	0.051705
0.293100 -0.035000 0.024709 0.002080	0.057542
0.293878 -0.035000 0.024584 0.002078	0.058158
0.295329 -0.035000 0.024348 0.002077	0.059285
0.303037 -0.035000 0.023099 0.002093	0.065744
0.306736 -0.035000 0.022494 0.001990	0.068845
0.313624 -0.035000 0.021359 0.001902	0.074501
0.315715 -0.035000 0.021015 0.001875	0.076344
0.318131 -0.035000 0.020612 0.001875	0.078437
0.324753 -0.035000 0.019510 0.001871	0.084341
0.331340 -0.035000 0.018402 0.001830	0.090627
0.334588 -0.035000 0.017856 0.001806	0.093908
0.336106 -0.035000 0.017599 0.001800	0.095190
0.346984 -0.035000 0.015749 0.001713	0.103062
0.347300 -0.035000 0.015695 0.001712	0.103340
0.349358 -0.035000 0.015340 0.001723	0.105398
0.359046 -0.035000 0.013670 0.001781	0.115171
0.361365 -0.035000 0.013267 0.001763	0.117300
0.370355 -0.035000 0.011702 0.001672	0.125788
0.375474 -0.035000 0.010806 0.001627	0.130838
0.380296 -0.035000 0.009960 0.001585	0.135299
0.388338 -0.035000 0.008538 0.001623	0.141299
0.390915 -0.035000 0.008083 0.001646	0.143147
0.392427 -0.035000 0.007813 0.001630	0.144195
0.401217 -0.035000 0.006242 0.001587	0.150073
0.403022 -0.035000 0.005916 0.001586	0.151229
0.410378 -0.035000 0.004588 0.001594	0.156003
0.418579 -0.035000 0.003092 0.001566	0.161792
0.420925 -0.035000 0.002664 0.001566	0.163514
0.431183 -0.035000 0.000774 0.001556	0.171978
0.431535 -0.035000 0.000709 0.001552	0.172237
0.431787 -0.035000 0.000662 0.001550	0.172383
0.445075 -0.035000 -0.001814 0.001468	0.180383
0.445464 -0.035000 -0.001886 0.001466	0.180645
0.445985 -0.035000 -0.001984 0.001465	0.181091
0.459799 -0.035000 -0.004588 0.001424	0.192360
0.462876 -0.035000 -0.005171 0.001434	0.194742
0.473357 -0.035000 -0.007168 0.001499	0.202795
0.474544 -0.035000 -0.007395 0.001496	0.203674
0.486179 -0.035000 -0.009636 0.001407	0.212107
0.488070 -0.035000 -0.010003 0.001395	0.213253
0.491884 -0.035000 -0.010745 0.001360	0.215701
0.496511 -0.035000 -0.011645 0.001317	0.218723
0.503346 -0.035000 -0.012985 0.001276	0.223105
0.507048 -0.035000 -0.013713 0.001287	0.225514
0.513356 -0.035000 -0.014959 0.001290	0.229906
0.519480 -0.035000 -0.016178 0.001283	0.234193
0.523444 -0.035000 -0.016966 0.001252	0.237000
0.533118 -0.035000 -0.018906 0.001221	0.244363
0.537325 -0.035000 -0.019753 0.001231	0.247779
0.546662 -0.035000 -0.021640 0.001208	0.255908
0.553541 -0.035000 -0.023036 0.001210	0.261545
0.561373 -0.035000 -0.024634 0.001208	0.268251
0.568707 -0.035000 -0.026137 0.001183	0.274535
0.575269 -0.035000 -0.027485 0.001153	0.279840
0.581303 -0.035000 -0.028732 0.001122	0.284224
0.586140 -0.035000 -0.029735 0.001080	0.287694
0.591188 -0.035000 -0.030786 0.001011	0.291255
0.598614 -0.035000 -0.032338 0.000999	0.296323
0.599926 -0.035000 -0.032613 0.000988	0.297248
0.602933 -0.035000 -0.033246 0.000980	0.299299
0.609612 -0.035000 -0.034652 0.000933	0.304204
0.612452 -0.035000 -0.035255 0.000943	0.306405
0.621404 -0.035000 -0.037156 0.000931	0.313726
0.626166 -0.035000 -0.038174 0.000903	0.317159
0.633437 -0.035000 -0.039735 0.000859	0.322468
0.637562 -0.035000 -0.040624 0.000843	0.325094
0.648465 -0.035000 -0.042997 0.000805	0.330447
0.649558 -0.035000 -0.043235 0.000799	0.331037
0.650244 -0.035000 -0.043388 0.000794	0.331343
0.652547 -0.035000 -0.043902 0.000782	0.333114
0.664586 -0.035000 -0.046586 0.000700	0.342165
0.675235 -0.035000 -0.048987 0.000650	0.352684
0.678929 -0.035000 -0.049816 0.000633	0.356227
0.683237 -0.035000 -0.050786 0.000631	0.360241
0.692271 -0.035000 -0.052821 0.000590	0.369461
0.697558 -0.035000 -0.054017 0.000593	0.373600
0.701792 -0.035000 -0.054973 0.000571	0.376812
0.709123 -0.035000 -0.056632 0.000499	0.383471
0.710029 -0.035000 -0.056838 0.000491	0.384009
0.711408 -0.035000 -0.057153 0.000481	0.385055
0.718703 -0.035000 -0.058815 0.000431	0.390614
0.722536 -0.035000 -0.059689 0.000400	0.393674
0.729576 -0.035000 -0.061306 0.000348	0.401328
0.731624 -0.035000 -0.061775 0.000328	0.403898
0.734417 -0.035000 -0.062420 0.000303	0.407893
0.738038 -0.035000 -0.063255 0.000277	0.412301
0.740329 -0.035000 -0.063786 0.000228	0.415085
0.742471 -0.035000 -0.064281 0.000171	0.417176
0.744125 -0.035000 -0.064666 0.000160	0.418815
0.744899 -0.035000 -0.064845 0.000145	0.421477
0.745572 -0.035000 -0.065001 0.000140	0.423123
0.746011 -0.035000 -0.065103 0.000146	0.423785
0.746412 -0.035000 -0.065196 0.000157	0.425293
0.746610 -0.035000 -0.065242 0.000168	0.426095
0.746822 -0.035000 -0.065291 0.000190	0.425621
0.746905 -0.035000 -0.065311 0.000207	0.426902
0.747036 -0.035000 -0.065341 0.000228	0.435873
0.747058 -0.035000 -0.065346 0.000234	0.436190
0.747120 -0.035000 -0.065361 0.000098	0.435247
0.747146 -0.035000 -0.065367 0.000043	0.434352
0.747134 -0.035000 -0.065367 0.000116	0.433321
0.747063 -0.035000 -0.065371 0.000540	0.426762
0.746936 -0.035000 -0.065378 0.000562	0.425881
0.746908 -0.035000 -0.065380 0.000567	0.426078
0.746844 -0.035000 -0.065383 0.000572	0.425475
0.746671 -0.035000 -0.065392 0.000581	0.425555
0.746413 -0.035000 -0.065406 0.000602	0.423562
0.746210 -0.035000 -0.065417 0.000611	0.422782
0.745499 -0.035000 -0.065455 0.000672	0.419093
0.745297 -0.035000 -0.065466 0.000692	0.418352
0.743628 -0.035000 -0.065556 0.000814	0.416135
0.743520 -0.035000 -0.065562 0.000820	0.415839
0.739179 -0.035000 -0.065792 0.000955	0.404717
0.738130 -0.035000 -0.065848 0.000997	0.402926
0.734947 -0.035000 -0.066014 0.001118	0.398070
0.729979 -0.035000 -0.066272 0.001213	0.392111
0.727892 -0.035000 -0.066381 0.001227	0.389779
0.722330 -0.035000 -0.066664 0.001227	0.384990
0.718544 -0.035000 -0.066855 0.001210	0.381872
0.717954 -0.035000 -0.066884 0.001217	0.381330
0.709238 -0.035000 -0.067316 0.001269	0.374856
0.705766 -0.035000 -0.067483 0.001257	0.371652
0.700124 -0.035000 -0.067755 0.001293	0.367324
0.694975 -0.035000 -0.067998 0.001264	0.361553
0.692804 -0.035000 -0.068100 0.001251	0.359276
0.685886 -0.035000 -0.068425 0.001265	0.352619
0.683173 -0.035000 -0.068549 0.001262	0.349872
0.672955 -0.035000 -0.069041 0.001321	0.337649
0.662662 -0.035000 -0.069522 0.001463	0.328511
0.660148 -0.035000 -0.069639 0.001513	0.326692
0.658479 -0.035000 -0.069715 0.001510	0.325733
0.648665 -0.035000 -0.070152 0.001483	0.322688
0.642979 -0.035000 -0.070385 0.001467	0.324053
0.634726 -0.035000 -0.070704 0.001543	0.321749
0.630005 -0.035000 -0.070883 0.001595	0.319987
0.613724 -0.035000 -0.071470 0.001724	0.311365
0.613235 -0.035000 -0.071487 0.001725	0.311112
0.613047 -0.035000 -0.071494 0.001724	0.310999
0.612763 -0.035000 -0.071503 0.001723	0.310888
0.592748 -0.035000 -0.072169 0.001598	0.301724
0.588423 -0.035000 -0.072303 0.001636	0.299382
0.575553 -0.035000 -0.072696 0.001639	0.291529
0.563502 -0.035000 -0.073043 0.001607	0.284677
0.560512 -0.035000 -0.073129 0.001626	0.282810
0.549014 -0.035000 -0.073445 0.001666	0.277195
0.538159 -0.035000 -0.073724 0.001676	0.271458
0.534994 -0.035000 -0.073807 0.001666	0.269866
0.533137 -0.035000 -0.073853 0.001671	0.269361
0.521175 -0.035000 -0.074134 0.002036	0.264466
0.519830 -0.035000 -0.074165 0.002048	0.263927
0.509451 -0.035000 -0.074389 0.001935	0.259370
0.503612 -0.035000 -0.074507 0.002043	0.257162
0.498614 -0.035000 -0.074605 0.002011	0.255151
0.489674 -0.035000 -0.074772 0.001912	0.251869
0.479950 -0.035000 -0.074935 0.001886	0.249739
0.474755 -0.035000 -0.075021 0.001896	0.248679
0.469887 -0.035000 -0.075093 0.001854	0.247338
0.458883 -0.035000 -0.075248 0.001717	0.242567
0.451460 -0.035000 -0.075342 0.001695	0.238997
0.441633 -0.035000 -0.075454 0.001713	0.236092
0.435099 -0.035000 -0.075523 0.001742	0.234594
0.423732 -0.035000 -0.075624 0.002022	0.230671
0.422492 -0.035000 -0.075635 0.002014	0.230294
0.418889 -0.035000 -0.075658 0.001988	0.229582
0.409571 -0.035000 -0.075722 0.001823	0.228017
0.403020 -0.035000 -0.075755 0.001917	0.226557
0.393831 -0.035000 -0.075793 0.001937	0.224134
0.379173 -0.035000 -0.075818 0.001765	0.218657
0.377514 -0.035000 -0.075821 0.001755	0.218029
0.376031 -0.035000 -0.075822 0.001753	0.217325
0.357386 -0.035000 -0.075814 0.001663	0.210895
0.354051 -0.035000 -0.075811 0.001658	0.210210
0.350364 -0.035000 -0.075800 0.001644	0.208507
0.337590 -0.035000 -0.075757 0.001749	0.204427
0.330523 -0.035000 -0.075717 0.001642	0.203757
0.322708 -0.035000 -0.075664 0.001651	0.201162
0.313338 -0.035000 -0.075585 0.001854	0.198595
0.307444 -0.035000 -0.075530 0.001802	0.196678
0.292437 -0.035000 -0.075355 0.001950	0.194775
0.291596 -0.035000 -0.075346 0.001957	0.194623
0.291328 -0.035000 -0.075342 0.001950	0.194542
0.276625 -0.035000 -0.075120 0.001907	0.192392
0.272204 -0.035000 -0.075046 0.002020	0.187612
0.263745 -0.035000 -0.074882 0.001966	0.187939
0.260260 -0.035000 -0.074815 0.001730	0.189016
0.258192 -0.035000 -0.074772 0.001786	0.193390
0.255957 -0.035000 -0.074722 0.001893	0.193661
0.242382 -0.035000 -0.074392 0.001785	0.190186
0.239437 -0.035000 -0.074318 0.001894	0.189440
0.231973 -0.035000 -0.074119 0.001816	0.187458
0.224293 -0.035000 -0.073913 0.001827	0.186387
0.219765 -0.035000 -0.073779 0.001924	0.186757
0.210358 -0.035000 -0.073497 0.002153	0.184859
0.208526 -0.035000 -0.073443 0.002189	0.184633
0.208050 -0.035000 -0.073428 0.002189	0.184374
0.201699 -0.035000 -0.073220 0.002141	0.182050
0.198506 -0.035000 -0.073115 0.002126	0.180841
0.197532 -0.035000 -0.073080 0.002141	0.180535
0.189394 -0.035000 -0.072794 0.002281	0.178446
0.187470 -0.035000 -0.072725 0.002298	0.178538
0.179451 -0.035000 -0.072419 0.002355	0.177503
0.174406 -0.035000 -0.072221 0.002315	0.175338
0.166335 -0.035000 -0.071885 0.002141	0.177603
0.161078 -0.035000 -0.071657 0.002213	0.180895
0.153363 -0.035000 -0.071297 0.002137	0.182015
0.149390 -0.035000 -0.071107 0.002207	0.181860
0.139835 -0.035000 -0.070627 0.002453	0.179778
0.138906 -0.035000 -0.070580 0.002475	0.179536
0.138461 -0.035000 -0.070557 0.002498	0.179639
0.130460 -0.035000 -0.070133 0.002607	0.180383
0.125198 -0.035000 -0.069842 0.002626	0.178913
0.121899 -0.035000 -0.069657 0.002640	0.178746
0.116418 -0.035000 -0.069339 0.002571	0.180860
0.112292 -0.035000 -0.069092 0.002616	0.179567
0.107460 -0.035000 -0.068799 0.002726	0.178135
0.102824 -0.035000 -0.068507 0.002876	0.179765
0.099234 -0.035000 -0.068278 0.002760	0.179308
0.091305 -0.035000 -0.067754 0.002863	0.178380
0.090491 -0.035000 -0.067699 0.002861	0.178963
0.089421 -0.035000 -0.067625 0.002952	0.179111
0.082622 -0.035000 -0.067155 0.003012	0.182464
0.078696 -0.035000 -0.066871 0.002962	0.183555
0.074567 -0.035000 -0.066564 0.002833	0.184971
0.070270 -0.035000 -0.066235 0.002875	0.185465
0.066051 -0.035000 -0.065906 0.002824	0.185226
0.062385 -0.035000 -0.065617 0.002829	0.184798
0.058110 -0.035000 -0.065274 0.003037	0.183913
0.054881 -0.035000 -0.065009 0.003035	0.183694
0.051121 -0.035000 -0.064696 0.003036	0.182821
0.047500 -0.035000 -0.064387 0.003007	0.183720
0.044259 -0.035000 -0.064108 0.002927	0.184462
0.037598 -0.035000 -0.063516 0.002898	0.186578
0.037556 -0.035000 -0.063512 0.002898	0.186591
0.037525 -0.035000 -0.063509 0.002898	0.186593
0.030449 -0.035000 -0.062858 0.002834	0.186294
0.027872 -0.035000 -0.062614 0.002895	0.186356
0.022056 -0.035000 -0.062056 0.002997	0.188821
0.019837 -0.035000 -0.061836 0.002937	0.190700
0.015937 -0.035000 -0.061443 0.002799	0.194296
0.014414 -0.035000 -0.061284 0.002792	0.200291
0.010186 -0.035000 -0.060838 0.002739	0.202531
0.009978 -0.035000 -0.060816 0.002739	0.202346
0.009811 -0.035000 -0.060798 0.002750	0.202420
0.009267 -0.035000 -0.060739 0.002745	0.202323
0.004010 -0.035000 -0.060168 0.002720	0.201378
0.000205 -0.035000 -0.059749 0.002832	0.199035
-0.002246 -0.035000 -0.059476 0.002914	0.197545
-0.006696 -0.035000 -0.058975 0.002917	0.195307
-0.008855 -0.035000 -0.058732 0.002965	0.195061
-0.011605 -0.035000 -0.058414 0.002894	0.197512
-0.014417 -0.035000 -0.058089 0.002849	0.199819
-0.015535 -0.035000 -0.057956 0.002872	0.200042
-0.020988 -0.035000 -0.057306 0.002896	0.201158
-0.022581 -0.035000 -0.057111 0.002850	0.201765
-0.026873 -0.035000 -0.056583 0.002746	0.204871
-0.028149 -0.035000 -0.056423 0.002774	0.207378
-0.033409 -0.035000 -0.055750 0.003166	0.211362
-0.033482 -0.035000 -0.055741 0.003172	0.211436
-0.033505 -0.035000 -0.055738 0.003172	0.211468
-0.038205 -0.035000 -0.055105 0.002962	0.221722
-0.040973 -0.035000 -0.054723 0.002884	0.221133
-0.044770 -0.035000 -0.054193 0.003034	0.221058
-0.048344 -0.035000 -0.053696 0.003244	0.219459
-0.053187 -0.035000 -0.053008 0.003270	0.217369
-0.055012 -0.035000 -0.052745 0.003234	0.218822
-0.060659 -0.035000 -0.051917 0.003122	0.220593
-0.061274 -0.035000 -0.051825 0.003132	0.221239
-0.064307 -0.035000 -0.051365 0.003199	0.224445
-0.067400 -0.035000 -0.050896 0.003232	0.228015
-0.067856 -0.035000 -0.050826 0.003269	0.228325
-0.068652 -0.035000 -0.050701 0.003233	0.228862
-0.072858 -0.035000 -0.050038 0.003140	0.232053
-0.076628 -0.035000 -0.049422 0.003145	0.236388
-0.077496 -0.035000 -0.049281 0.003155	0.237852
-0.078073 -0.035000 -0.049185 0.003166	0.238258
-0.082302 -0.035000 -0.048479 0.003187	0.239217
-0.084391 -0.035000 -0.048124 0.003204	0.240616
-0.087164 -0.035000 -0.047648 0.003105	0.241289
-0.089276 -0.035000 -0.047282 0.003085	0.242414
-0.092179 -0.035000 -0.046770 0.003133	0.248692
-0.093394 -0.035000 -0.046554 0.003046	0.250726
-0.097205 -0.035000 -0.045861 0.003208	0.258448
-0.097720 -0.035000 -0.045767 0.003225	0.259656
-0.097984 -0.035000 -0.045718 0.003228	0.259784
-0.101947 -0.035000 -0.044974 0.003138	0.262111
-0.105447 -0.035000 -0.044302 0.003174	0.262793
-0.106563 -0.035000 -0.044088 0.003177	0.263077
-0.110418 -0.035000 -0.043335 0.003521	0.262323
-0.111022 -0.035000 -0.043216 0.003527	0.262168
-0.114947 -0.035000 -0.042435 0.003391	0.265124
-0.116548 -0.035000 -0.042110 0.003339	0.269047
-0.119526 -0.035000 -0.041496 0.003311	0.276523
-0.121385 -0.035000 -0.041104 0.003369	0.282292
-0.123908 -0.035000 -0.040565 0.003267	0.286915
-0.126227 -0.035000 -0.040061 0.003241	0.288520
-0.128848 -0.035000 -0.039485 0.003244	0.289040
-0.130638 -0.035000 -0.039086 0.003173	0.289992
-0.134296 -0.035000 -0.038258 0.003164	0.297446
-0.134730 -0.035000 -0.038159 0.003170	0.297641
-0.135459 -0.035000 -0.037990 0.003175	0.297846
-0.138463 -0.035000 -0.037293 0.003149	0.298955
-0.140915 -0.035000 -0.036713 0.003207	0.303620
-0.141735 -0.035000 -0.036517 0.003221	0.305075
-0.144184 -0.035000 -0.035925 0.003228	0.312983
-0.146778 -0.035000 -0.035286 0.003206	0.318878
-0.147839 -0.035000 -0.035022 0.003181	0.320731
-0.149386 -0.035000 -0.034631 0.003192	0.324068
-0.151239 -0.035000 -0.034160 0.003149	0.325982
-0.153912 -0.035000 -0.033468 0.003023	0.326239
-0.155309 -0.035000 -0.033102 0.003032	0.328028
-0.157539 -0.035000 -0.032512 0.003050	0.329836
-0.159430 -0.035000 -0.032003 0.003106	0.333704
-0.160981 -0.035000 -0.031582 0.003145	0.339213
-0.162794 -0.035000 -0.031080 0.003071	0.345167
-0.163945 -0.035000 -0.030758 0.003082	0.349715
-0.165148 -0.035000 -0.030420 0.003160	0.353368
-0.167404 -0.035000 -0.029772 0.003215	0.359014
-0.167861 -0.035000 -0.029641 0.003217	0.359817
-0.168119 -0.035000 -0.029566 0.003212	0.359858
-0.171395 -0.035000 -0.028604 0.003148	0.365478
-0.171570 -0.035000 -0.028552 0.003128	0.366018
-0.171856 -0.035000 -0.028467 0.003124	0.367169
-0.174477 -0.035000 -0.027675 0.003060	0.376251
-0.175422 -0.035000 -0.027385 0.003136	0.379479
-0.177928 -0.035000 -0.026606 0.003170	0.383721
-0.178100 -0.035000 -0.026551 0.003184	0.384175
-0.180927 -0.035000 -0.025653 0.003129	0.393030
-0.181717 -0.035000 -0.025398 0.003073	0.395484
-0.184284 -0.035000 -0.024556 0.003088	0.406613
-0.184412 -0.035000 -0.024514 0.003089	0.407035
-0.187118 -0.035000 -0.023600 0.003061	0.411678
-0.187255 -0.035000 -0.023553 0.003057	0.411627
-0.190119 -0.035000 -0.022561 0.003147	0.418275
-0.190220 -0.035000 -0.022525 0.003152	0.418467
-0.190341 -0.035000 -0.022482 0.003143	0.418974
-0.193227 -0.035000 -0.021452 0.002993	0.429403
-0.195470 -0.035000 -0.020626 0.002962	0.442061
-0.196216 -0.035000 -0.020351 0.002935	0.446612
-0.197764 -0.035000 -0.019763 0.003019	0.452634
-0.199081 -0.035000 -0.019262 0.003043	0.457474
-0.199920 -0.035000 -0.018933 0.003087	0.463155
-0.201257 -0.035000 -0.018410 0.003074	0.470256
-0.201892 -0.035000 -0.018156 0.003054	0.471932
-0.203041 -0.035000 -0.017695 0.002869	0.474458
-0.204244 -0.035000 -0.017204 0.002843	0.480183