TITLE     = "Surface mesh and solution"
VARIABLES = "x"
"y"
"z"
"cfx"
"Cp"
DATASETAUXDATA alpha_deg="  0.0000000E+00"
DATASETAUXDATA beta_deg="  0.0000000E+00"
DATASETAUXDATA bref="  0.7500000"
DATASETAUXDATA cref="   1.000000"
DATASETAUXDATA itranflg="           0"
DATASETAUXDATA ivisc="           2"
DATASETAUXDATA mach="  0.2000000"
DATASETAUXDATA reue_mil="   4.600000"
DATASETAUXDATA sref="  0.7500000"
DATASETAUXDATA tinf_r="   521.0000"
DATASETAUXDATA xmc="  0.0000000E+00"
DATASETAUXDATA ymc="  0.0000000E+00"
DATASETAUXDATA zmc="  0.0000000E+00"
ZONE T="Slice: Y=-0.001"
STRANDID=0, SOLUTIONTIME=0
Nodes=1193, Elements=1193, ZONETYPE=FELineSeg
DATAPACKING=POINT
DT=(DOUBLE DOUBLE DOUBLE DOUBLE DOUBLE )
-0.249049 -0.001000 0.021789 0.000447	0.580123
-0.249051 -0.001000 0.021765 0.000438	0.581968
-0.249072 -0.001000 0.021483 0.000327	0.600559
-0.249089 -0.001000 0.021194 0.000226	0.620450
-0.249091 -0.001000 0.021156 0.000212	0.623696
-0.249092 -0.001000 0.021121 0.000202	0.626700
-0.249102 -0.001000 0.020831 0.000118	0.652760
-0.249106 -0.001000 0.020618 0.000056	0.658678
-0.249107 -0.001000 0.020560 0.000039	0.660503
-0.249107 -0.001000 0.020526 0.000028	0.663857
-0.249107 -0.001000 0.020334 -0.000026	0.682000
-0.249105 -0.001000 0.020205 -0.000062	0.686216
-0.249103 -0.001000 0.020083 -0.000092	0.692139
-0.249095 -0.001000 0.019824 -0.000161	0.713159
-0.249095 -0.001000 0.019798 -0.000169	0.715461
-0.249092 -0.001000 0.019740 -0.000181	0.718821
-0.249078 -0.001000 0.019468 -0.000241	0.733721
-0.249065 -0.001000 0.019279 -0.000290	0.746905
-0.249051 -0.001000 0.019101 -0.000330	0.759971
-0.249033 -0.001000 0.018893 -0.000392	0.772674
-0.249018 -0.001000 0.018750 -0.000424	0.778541
-0.248997 -0.001000 0.018557 -0.000461	0.789381
-0.248971 -0.001000 0.018355 -0.000462	0.794412
-0.248949 -0.001000 0.018187 -0.000463	0.801442
-0.248908 -0.001000 0.017918 -0.000500	0.824153
-0.248896 -0.001000 0.017838 -0.000510	0.828186
-0.248843 -0.001000 0.017531 -0.000552	0.840997
-0.248812 -0.001000 0.017369 -0.000566	0.851554
-0.248744 -0.001000 0.017035 -0.000588	0.866782
-0.248726 -0.001000 0.016948 -0.000602	0.869941
-0.248697 -0.001000 0.016824 -0.000601	0.874504
-0.248633 -0.001000 0.016545 -0.000621	0.886184
-0.248555 -0.001000 0.016247 -0.000630	0.897690
-0.248528 -0.001000 0.016139 -0.000637	0.901227
-0.248505 -0.001000 0.016059 -0.000639	0.905061
-0.248421 -0.001000 0.015761 -0.000642	0.917018
-0.248379 -0.001000 0.015621 -0.000633	0.922274
-0.248318 -0.001000 0.015424 -0.000636	0.928277
-0.248253 -0.001000 0.015223 -0.000620	0.935397
-0.248195 -0.001000 0.015049 -0.000600	0.941396
-0.248080 -0.001000 0.014720 -0.000554	0.948022
-0.248052 -0.001000 0.014643 -0.000542	0.950155
-0.248013 -0.001000 0.014540 -0.000537	0.952489
-0.247901 -0.001000 0.014240 -0.000525	0.959076
-0.247801 -0.001000 0.013994 -0.000491	0.964603
-0.247735 -0.001000 0.013829 -0.000476	0.968230
-0.247611 -0.001000 0.013539 -0.000453	0.973827
-0.247561 -0.001000 0.013423 -0.000442	0.976003
-0.247511 -0.001000 0.013311 -0.000421	0.977574
-0.247392 -0.001000 0.013049 -0.000368	0.980932
-0.247331 -0.001000 0.012920 -0.000347	0.982943
-0.247206 -0.001000 0.012657 -0.000305	0.985922
-0.247021 -0.001000 0.012288 -0.000246	0.988038
-0.246997 -0.001000 0.012240 -0.000238	0.988466
-0.246953 -0.001000 0.012157 -0.000229	0.989153
-0.246808 -0.001000 0.011881 -0.000195	0.991654
-0.246776 -0.001000 0.011821 -0.000185	0.992085
-0.246614 -0.001000 0.011526 -0.000130	0.992865
-0.246569 -0.001000 0.011446 -0.000120	0.993426
-0.246401 -0.001000 0.011153 -0.000058	0.995603
-0.246340 -0.001000 0.011048 -0.000038	0.995952
-0.246208 -0.001000 0.010828 0.000005	0.997442
-0.246113 -0.001000 0.010670 0.000037	0.997089
-0.246024 -0.001000 0.010527 0.000068	0.996396
-0.245885 -0.001000 0.010305 0.000121	0.995612
-0.245808 -0.001000 0.010185 0.000145	0.994799
-0.245662 -0.001000 0.009960 0.000191	0.993921
-0.245476 -0.001000 0.009681 0.000235	0.992095
-0.245396 -0.001000 0.009563 0.000252	0.990882
-0.245256 -0.001000 0.009362 0.000304	0.989565
-0.245123 -0.001000 0.009170 0.000346	0.987881
-0.244975 -0.001000 0.008964 0.000392	0.986277
-0.244875 -0.001000 0.008825 0.000418	0.985046
-0.244830 -0.001000 0.008763 0.000426	0.984338
-0.244654 -0.001000 0.008525 0.000464	0.981430
-0.244441 -0.001000 0.008245 0.000519	0.979656
-0.244419 -0.001000 0.008215 0.000525	0.979359
-0.244343 -0.001000 0.008118 0.000540	0.977889
-0.244172 -0.001000 0.007898 0.000575	0.974303
-0.244116 -0.001000 0.007827 0.000592	0.973116
-0.243879 -0.001000 0.007531 0.000642	0.968569
-0.243782 -0.001000 0.007412 0.000668	0.967095
-0.243598 -0.001000 0.007189 0.000719	0.964429
-0.243334 -0.001000 0.006875 0.000755	0.960558
-0.243332 -0.001000 0.006872 0.000755	0.960508
-0.243323 -0.001000 0.006862 0.000757	0.960378
-0.242969 -0.001000 0.006452 0.000832	0.953938
-0.242899 -0.001000 0.006374 0.000855	0.952845
-0.242603 -0.001000 0.006041 0.000945	0.947193
-0.242319 -0.001000 0.005730 0.001010	0.941967
-0.242308 -0.001000 0.005717 0.001012	0.941748
-0.242296 -0.001000 0.005704 0.001013	0.941438
-0.242014 -0.001000 0.005402 0.001040	0.934459
-0.241788 -0.001000 0.005164 0.001080	0.931209
-0.241712 -0.001000 0.005084 0.001091	0.930078
-0.241447 -0.001000 0.004811 0.001101	0.925915
-0.241343 -0.001000 0.004706 0.001112	0.923865
-0.241081 -0.001000 0.004442 0.001165	0.917815
-0.240889 -0.001000 0.004252 0.001194	0.913670
-0.240571 -0.001000 0.003942 0.001233	0.906836
-0.240473 -0.001000 0.003847 0.001245	0.904644
-0.240158 -0.001000 0.003547 0.001293	0.898201
-0.240080 -0.001000 0.003473 0.001305	0.896633
-0.240058 -0.001000 0.003453 0.001307	0.896147
-0.239765 -0.001000 0.003180 0.001328	0.889310
-0.239502 -0.001000 0.002940 0.001353	0.885227
-0.239420 -0.001000 0.002865 0.001353	0.883756
-0.239025 -0.001000 0.002510 0.001409	0.875489
-0.239003 -0.001000 0.002490 0.001415	0.875083
-0.238885 -0.001000 0.002386 0.001436	0.872590
-0.238616 -0.001000 0.002149 0.001488	0.867114
-0.238354 -0.001000 0.001923 0.001495	0.861784
-0.238205 -0.001000 0.001795 0.001502	0.858889
-0.238175 -0.001000 0.001770 0.001504	0.858347
-0.237703 -0.001000 0.001371 0.001551	0.849673
-0.237641 -0.001000 0.001319 0.001554	0.848751
-0.237167 -0.001000 0.000929 0.001588	0.841433
-0.237079 -0.001000 0.000857 0.001593	0.840198
-0.236565 -0.001000 0.000443 0.001654	0.830271
-0.236500 -0.001000 0.000390 0.001662	0.828754
-0.236261 -0.001000 0.000202 0.001673	0.823894
-0.235970 -0.001000 -0.000027 0.001689	0.817985
-0.235763 -0.001000 -0.000186 0.001702	0.814847
-0.235420 -0.001000 -0.000450 0.001718	0.810006
-0.235022 -0.001000 -0.000752 0.001741	0.803793
-0.234891 -0.001000 -0.000851 0.001747	0.801758
-0.234790 -0.001000 -0.000926 0.001753	0.799848
-0.234413 -0.001000 -0.001205 0.001780	0.792629
-0.234052 -0.001000 -0.001469 0.001799	0.787930
-0.233910 -0.001000 -0.001573 0.001805	0.785766
-0.233725 -0.001000 -0.001705 0.001834	0.783465
-0.233419 -0.001000 -0.001925 0.001876	0.779201
-0.232946 -0.001000 -0.002259 0.001853	0.769862
-0.232882 -0.001000 -0.002304 0.001857	0.768663
-0.232357 -0.001000 -0.002668 0.001926	0.760134
-0.232290 -0.001000 -0.002714 0.001929	0.759020
-0.231852 -0.001000 -0.003013 0.001902	0.752506
-0.231817 -0.001000 -0.003036 0.001901	0.751926
-0.231407 -0.001000 -0.003313 0.001944	0.746249
-0.231170 -0.001000 -0.003471 0.001984	0.742975
-0.230906 -0.001000 -0.003646 0.002017	0.739335
-0.230622 -0.001000 -0.003833 0.002039	0.735293
-0.230052 -0.001000 -0.004203 0.002018	0.727097
-0.230000 -0.001000 -0.004236 0.002017	0.726464
-0.229892 -0.001000 -0.004305 0.002022	0.725159
-0.229442 -0.001000 -0.004593 0.002025	0.719050
-0.229147 -0.001000 -0.004779 0.002047	0.715495
-0.228898 -0.001000 -0.004936 0.002047	0.712224
-0.228675 -0.001000 -0.005074 0.002063	0.709125
-0.228329 -0.001000 -0.005289 0.002087	0.705130
-0.228061 -0.001000 -0.005454 0.002090	0.701835
-0.227712 -0.001000 -0.005667 0.002106	0.697500
-0.227277 -0.001000 -0.005930 0.002140	0.691023
-0.227217 -0.001000 -0.005966 0.002133	0.690234
-0.227153 -0.001000 -0.006004 0.002137	0.689604
-0.226697 -0.001000 -0.006276 0.002124	0.685595
-0.226263 -0.001000 -0.006533 0.002156	0.681232
-0.226116 -0.001000 -0.006619 0.002159	0.679912
-0.225486 -0.001000 -0.006985 0.002107	0.669615
-0.225434 -0.001000 -0.007015 0.002105	0.669057
-0.225304 -0.001000 -0.007090 0.002133	0.667591
-0.224837 -0.001000 -0.007358 0.002194	0.662486
-0.224619 -0.001000 -0.007481 0.002246	0.661163
-0.224218 -0.001000 -0.007708 0.002267	0.657899
-0.224015 -0.001000 -0.007822 0.002273	0.655172
-0.223614 -0.001000 -0.008045 0.002260	0.649422
-0.223450 -0.001000 -0.008136 0.002259	0.647636
-0.222991 -0.001000 -0.008389 0.002255	0.642566
-0.222928 -0.001000 -0.008424 0.002261	0.642089
-0.222711 -0.001000 -0.008542 0.002278	0.639702
-0.222367 -0.001000 -0.008729 0.002308	0.636306
-0.222275 -0.001000 -0.008778 0.002313	0.635427
-0.221686 -0.001000 -0.009095 0.002332	0.629739
-0.221373 -0.001000 -0.009261 0.002329	0.626744
-0.220984 -0.001000 -0.009467 0.002314	0.622722
-0.220657 -0.001000 -0.009639 0.002324	0.619244
-0.220197 -0.001000 -0.009879 0.002371	0.615259
-0.219887 -0.001000 -0.010039 0.002379	0.612629
-0.219436 -0.001000 -0.010271 0.002409	0.609184
-0.219109 -0.001000 -0.010438 0.002420	0.606066
-0.218605 -0.001000 -0.010694 0.002414	0.601234
-0.218355 -0.001000 -0.010820 0.002420	0.599177
-0.217735 -0.001000 -0.011130 0.002433	0.594125
-0.217646 -0.001000 -0.011175 0.002433	0.593516
-0.217186 -0.001000 -0.011402 0.002428	0.589414
-0.217081 -0.001000 -0.011454 0.002424	0.588482
-0.216825 -0.001000 -0.011579 0.002443	0.586936
-0.216441 -0.001000 -0.011768 0.002466	0.584633
-0.216419 -0.001000 -0.011778 0.002468	0.584441
-0.216281 -0.001000 -0.011845 0.002490	0.583094
-0.215820 -0.001000 -0.012069 0.002534	0.578880
-0.215610 -0.001000 -0.012170 0.002545	0.576775
-0.215215 -0.001000 -0.012360 0.002523	0.573728
-0.214772 -0.001000 -0.012570 0.002524	0.570923
-0.214520 -0.001000 -0.012690 0.002514	0.569628
-0.214254 -0.001000 -0.012815 0.002522	0.566971
-0.213692 -0.001000 -0.013079 0.002519	0.561371
-0.213182 -0.001000 -0.013316 0.002567	0.556956
-0.212959 -0.001000 -0.013419 0.002589	0.555042
-0.212439 -0.001000 -0.013658 0.002591	0.551717
-0.212234 -0.001000 -0.013752 0.002581	0.550383
-0.212094 -0.001000 -0.013816 0.002588	0.549435
-0.211431 -0.001000 -0.014117 0.002559	0.544539
-0.210718 -0.001000 -0.014436 0.002552	0.539738
-0.210669 -0.001000 -0.014458 0.002552	0.539431
-0.210638 -0.001000 -0.014472 0.002554	0.539294
-0.209874 -0.001000 -0.014811 0.002610	0.536313
-0.209700 -0.001000 -0.014888 0.002611	0.535038
-0.209050 -0.001000 -0.015173 0.002597	0.529415
-0.208776 -0.001000 -0.015293 0.002604	0.527494
-0.208243 -0.001000 -0.015524 0.002618	0.524442
-0.207595 -0.001000 -0.015803 0.002618	0.520697
-0.207406 -0.001000 -0.015883 0.002600	0.519313
-0.206480 -0.001000 -0.016276 0.002654	0.512891
-0.206435 -0.001000 -0.016295 0.002657	0.512639
-0.205611 -0.001000 -0.016641 0.002647	0.509270
-0.205147 -0.001000 -0.016834 0.002657	0.507115
-0.204656 -0.001000 -0.017038 0.002676	0.504036
-0.204109 -0.001000 -0.017263 0.002718	0.499680
-0.203626 -0.001000 -0.017460 0.002716	0.496283
-0.203117 -0.001000 -0.017667 0.002663	0.493641
-0.202506 -0.001000 -0.017913 0.002650	0.489619
-0.201959 -0.001000 -0.018132 0.002693	0.486693
-0.201456 -0.001000 -0.018332 0.002701	0.484478
-0.200758 -0.001000 -0.018607 0.002708	0.481228
-0.200433 -0.001000 -0.018735 0.002711	0.480468
-0.199986 -0.001000 -0.018910 0.002735	0.478500
-0.199427 -0.001000 -0.019128 0.002730	0.476418
-0.198909 -0.001000 -0.019328 0.002744	0.473018
-0.198481 -0.001000 -0.019493 0.002740	0.469737
-0.198087 -0.001000 -0.019643 0.002782	0.467329
-0.197428 -0.001000 -0.019894 0.002776	0.463485
-0.196824 -0.001000 -0.020123 0.002745	0.460724
-0.196202 -0.001000 -0.020356 0.002764	0.458547
-0.195868 -0.001000 -0.020480 0.002759	0.457595
-0.195663 -0.001000 -0.020556 0.002757	0.456823
-0.194728 -0.001000 -0.020902 0.002739	0.452678
-0.194277 -0.001000 -0.021067 0.002726	0.450518
-0.193493 -0.001000 -0.021353 0.002722	0.447018
-0.192905 -0.001000 -0.021566 0.002726	0.445772
-0.192300 -0.001000 -0.021784 0.002719	0.444517
-0.191772 -0.001000 -0.021974 0.002754	0.442760
-0.191220 -0.001000 -0.022171 0.002816	0.440192
-0.190659 -0.001000 -0.022370 0.002818	0.437075
-0.190288 -0.001000 -0.022501 0.002796	0.435442
-0.189233 -0.001000 -0.022870 0.002825	0.429874
-0.189160 -0.001000 -0.022896 0.002826	0.429525
-0.189140 -0.001000 -0.022903 0.002827	0.429419
-0.188997 -0.001000 -0.022952 0.002825	0.428693
-0.187867 -0.001000 -0.023343 0.002811	0.423056
-0.187159 -0.001000 -0.023585 0.002772	0.420261
-0.186600 -0.001000 -0.023776 0.002750	0.418235
-0.186510 -0.001000 -0.023806 0.002758	0.418026
-0.185472 -0.001000 -0.024158 0.002823	0.416180
-0.185228 -0.001000 -0.024239 0.002816	0.415510
-0.184953 -0.001000 -0.024331 0.002826	0.414977
-0.184089 -0.001000 -0.024619 0.002827	0.413373
-0.183956 -0.001000 -0.024664 0.002815	0.412954
-0.183449 -0.001000 -0.024831 0.002836	0.410834
-0.182845 -0.001000 -0.025030 0.002832	0.408304
-0.182449 -0.001000 -0.025160 0.002842	0.406702
-0.181764 -0.001000 -0.025383 0.002845	0.403710
-0.180998 -0.001000 -0.025631 0.002870	0.400655
-0.180591 -0.001000 -0.025762 0.002860	0.399522
-0.179661 -0.001000 -0.026059 0.002860	0.396854
-0.179409 -0.001000 -0.026140 0.002851	0.396041
-0.178524 -0.001000 -0.026419 0.002868	0.394248
-0.178099 -0.001000 -0.026554 0.002846	0.393414
-0.177817 -0.001000 -0.026642 0.002849	0.392685
-0.176784 -0.001000 -0.026965 0.002822	0.390643
-0.175866 -0.001000 -0.027250 0.002854	0.387857
-0.175380 -0.001000 -0.027400 0.002879	0.386323
-0.174453 -0.001000 -0.027685 0.002884	0.382874
-0.173350 -0.001000 -0.028020 0.002962	0.378855
-0.173265 -0.001000 -0.028046 0.002962	0.378537
-0.173223 -0.001000 -0.028059 0.002964	0.378410
-0.172179 -0.001000 -0.028372 0.002970	0.373840
-0.171722 -0.001000 -0.028509 0.002957	0.370368
-0.170968 -0.001000 -0.028732 0.002856	0.367855
-0.170329 -0.001000 -0.028919 0.002768	0.366057
-0.169335 -0.001000 -0.029210 0.002774	0.365658
-0.168783 -0.001000 -0.029371 0.002780	0.366038
-0.168192 -0.001000 -0.029542 0.002841	0.365127
-0.167048 -0.001000 -0.029873 0.002897	0.362857
-0.165668 -0.001000 -0.030268 0.002853	0.360697
-0.165420 -0.001000 -0.030339 0.002837	0.360301
-0.165311 -0.001000 -0.030370 0.002835	0.360031
-0.163883 -0.001000 -0.030774 0.002811	0.357936
-0.163140 -0.001000 -0.030983 0.002842	0.355338
-0.162602 -0.001000 -0.031133 0.002783	0.353118
-0.161967 -0.001000 -0.031309 0.002851	0.350783
-0.161289 -0.001000 -0.031496 0.002833	0.348525
-0.160897 -0.001000 -0.031604 0.002871	0.346931
-0.159905 -0.001000 -0.031875 0.002886	0.342936
-0.159406 -0.001000 -0.032011 0.002887	0.340699
-0.158400 -0.001000 -0.032282 0.002936	0.338193
-0.158215 -0.001000 -0.032332 0.002934	0.337726
-0.157773 -0.001000 -0.032449 0.002920	0.337127
-0.156858 -0.001000 -0.032693 0.002821	0.336041
-0.155551 -0.001000 -0.033039 0.002770	0.333268
-0.155359 -0.001000 -0.033089 0.002765	0.332949
-0.155186 -0.001000 -0.033135 0.002771	0.332661
-0.153862 -0.001000 -0.033481 0.002833	0.330580
-0.152493 -0.001000 -0.033836 0.002872	0.329247
-0.152269 -0.001000 -0.033894 0.002872	0.328990
-0.152103 -0.001000 -0.033936 0.002876	0.328694
-0.150698 -0.001000 -0.034296 0.002836	0.325832
-0.149510 -0.001000 -0.034598 0.002805	0.323736
-0.149137 -0.001000 -0.034693 0.002780	0.323124
-0.148781 -0.001000 -0.034782 0.002786	0.322421
-0.147397 -0.001000 -0.035129 0.002801	0.319854
-0.145329 -0.001000 -0.035641 0.002818	0.316438
-0.145147 -0.001000 -0.035686 0.002815	0.316113
-0.145009 -0.001000 -0.035720 0.002815	0.315916
-0.142861 -0.001000 -0.036243 0.002755	0.314505
-0.142504 -0.001000 -0.036329 0.002759	0.313858
-0.141055 -0.001000 -0.036680 0.002794	0.310380
-0.139412 -0.001000 -0.037070 0.002907	0.305216
-0.139134 -0.001000 -0.037136 0.002903	0.304399
-0.138938 -0.001000 -0.037182 0.002927	0.304041
-0.138099 -0.001000 -0.037378 0.002910	0.303503
-0.136621 -0.001000 -0.037724 0.002850	0.302465
-0.136424 -0.001000 -0.037770 0.002838	0.302296
-0.134435 -0.001000 -0.038228 0.002865	0.298800
-0.134253 -0.001000 -0.038270 0.002867	0.298493
-0.132302 -0.001000 -0.038713 0.002756	0.295259
-0.132128 -0.001000 -0.038752 0.002756	0.295021
-0.131621 -0.001000 -0.038866 0.002755	0.294159
-0.130321 -0.001000 -0.039158 0.002735	0.291758
-0.128935 -0.001000 -0.039465 0.002790	0.289226
-0.128327 -0.001000 -0.039600 0.002801	0.288036
-0.128038 -0.001000 -0.039663 0.002796	0.287638
-0.125775 -0.001000 -0.040157 0.002749	0.284945
-0.125415 -0.001000 -0.040235 0.002736	0.284704
-0.123451 -0.001000 -0.040656 0.002729	0.283875
-0.122906 -0.001000 -0.040773 0.002706	0.283650
-0.122703 -0.001000 -0.040816 0.002715	0.283454
-0.120853 -0.001000 -0.041210 0.002730	0.280757
-0.119376 -0.001000 -0.041519 0.002774	0.277587
-0.118666 -0.001000 -0.041667 0.002754	0.275926
-0.117593 -0.001000 -0.041888 0.002778	0.275286
-0.116356 -0.001000 -0.042143 0.002724	0.274223
-0.115327 -0.001000 -0.042353 0.002813	0.273275
-0.114083 -0.001000 -0.042606 0.002821	0.272111
-0.112698 -0.001000 -0.042885 0.002730	0.270795
-0.112202 -0.001000 -0.042984 0.002683	0.270193
-0.110521 -0.001000 -0.043319 0.002642	0.267112
-0.109004 -0.001000 -0.043618 0.002673	0.265099
-0.108157 -0.001000 -0.043784 0.002652	0.264125
-0.106142 -0.001000 -0.044175 0.002679	0.262260
-0.105635 -0.001000 -0.044274 0.002677	0.261712
-0.105303 -0.001000 -0.044337 0.002669	0.261351
-0.103085 -0.001000 -0.044761 0.002576	0.258336
-0.100775 -0.001000 -0.045195 0.002656	0.255124
-0.100664 -0.001000 -0.045216 0.002657	0.255000
-0.100534 -0.001000 -0.045240 0.002662	0.254956
-0.097962 -0.001000 -0.045717 0.002633	0.253972
-0.095781 -0.001000 -0.046115 0.002729	0.252878
-0.095621 -0.001000 -0.046145 0.002724	0.252731
-0.095410 -0.001000 -0.046183 0.002723	0.252653
-0.093149 -0.001000 -0.046591 0.002590	0.251032
-0.091644 -0.001000 -0.046859 0.002585	0.249445
-0.090468 -0.001000 -0.047068 0.002559	0.248598
-0.088239 -0.001000 -0.047460 0.002671	0.246543
-0.087891 -0.001000 -0.047521 0.002663	0.246321
-0.085470 -0.001000 -0.047941 0.002611	0.244245
-0.084655 -0.001000 -0.048080 0.002584	0.243394
-0.083064 -0.001000 -0.048352 0.002527	0.241570
-0.081722 -0.001000 -0.048579 0.002723	0.240657
-0.080780 -0.001000 -0.048738 0.002736	0.240278
-0.078321 -0.001000 -0.049147 0.002598	0.237123
-0.078098 -0.001000 -0.049184 0.002588	0.236845
-0.077922 -0.001000 -0.049213 0.002596	0.236671
-0.075017 -0.001000 -0.049687 0.002655	0.233661
-0.074292 -0.001000 -0.049805 0.002663	0.232902
-0.074133 -0.001000 -0.049831 0.002665	0.232772
-0.071102 -0.001000 -0.050315 0.002563	0.230908
-0.068379 -0.001000 -0.050744 0.002592	0.229815
-0.067994 -0.001000 -0.050804 0.002586	0.229613
-0.067808 -0.001000 -0.050833 0.002584	0.229501
-0.064399 -0.001000 -0.051359 0.002444	0.227827
-0.063835 -0.001000 -0.051446 0.002442	0.227375
-0.062245 -0.001000 -0.051687 0.002543	0.226024
-0.060450 -0.001000 -0.051959 0.002596	0.224556
-0.059272 -0.001000 -0.052135 0.002620	0.224125
-0.057630 -0.001000 -0.052380 0.002563	0.223771
-0.056614 -0.001000 -0.052530 0.002586	0.223305
-0.054883 -0.001000 -0.052784 0.002426	0.222973
-0.052488 -0.001000 -0.053132 0.002490	0.221420
-0.051718 -0.001000 -0.053243 0.002495	0.220968
-0.048761 -0.001000 -0.053665 0.002551	0.219351
-0.048468 -0.001000 -0.053707 0.002557	0.219094
-0.045409 -0.001000 -0.054136 0.002422	0.217425
-0.044462 -0.001000 -0.054266 0.002432	0.216886
-0.041993 -0.001000 -0.054606 0.002407	0.214686
-0.039489 -0.001000 -0.054945 0.002454	0.213111
-0.038386 -0.001000 -0.055094 0.002433	0.212285
-0.036369 -0.001000 -0.055361 0.002457	0.211656
-0.034506 -0.001000 -0.055607 0.002427	0.211166
-0.034003 -0.001000 -0.055673 0.002431	0.210931
-0.029980 -0.001000 -0.056194 0.002461	0.208561
-0.029751 -0.001000 -0.056223 0.002455	0.208316
-0.029345 -0.001000 -0.056275 0.002457	0.208103
-0.026222 -0.001000 -0.056670 0.002282	0.206327
-0.023493 -0.001000 -0.057010 0.002415	0.206359
-0.022123 -0.001000 -0.057180 0.002384	0.205937
-0.020121 -0.001000 -0.057424 0.002414	0.205313
-0.017830 -0.001000 -0.057704 0.002357	0.204184
-0.014893 -0.001000 -0.058054 0.002313	0.201708
-0.013764 -0.001000 -0.058189 0.002281	0.200903
-0.013328 -0.001000 -0.058241 0.002296	0.200881
-0.010085 -0.001000 -0.058620 0.002357	0.200481
-0.009140 -0.001000 -0.058730 0.002340	0.200033
-0.007260 -0.001000 -0.058945 0.002320	0.199118
-0.004946 -0.001000 -0.059208 0.002258	0.198273
-0.002157 -0.001000 -0.059521 0.002249	0.196961
0.001888 -0.001000 -0.059967 0.002331	0.196006
0.001909 -0.001000 -0.059969 0.002331	0.196004
0.001915 -0.001000 -0.059970 0.002331	0.196002
0.006204 -0.001000 -0.060431 0.002195	0.194697
0.006685 -0.001000 -0.060482 0.002186	0.194523
0.011705 -0.001000 -0.061007 0.002210	0.192202
0.011829 -0.001000 -0.061020 0.002209	0.192206
0.016925 -0.001000 -0.061539 0.002067	0.192881
0.018430 -0.001000 -0.061689 0.002083	0.191995
0.022544 -0.001000 -0.062095 0.002083	0.190678
0.023819 -0.001000 -0.062219 0.002054	0.190555
0.028511 -0.001000 -0.062670 0.002055	0.189299
0.028926 -0.001000 -0.062710 0.002050	0.189090
0.030638 -0.001000 -0.062870 0.002065	0.189039
0.034188 -0.001000 -0.063202 0.002060	0.188480
0.036872 -0.001000 -0.063446 0.002071	0.187517
0.039840 -0.001000 -0.063716 0.002069	0.186345
0.042421 -0.001000 -0.063946 0.002166	0.184851
0.044894 -0.001000 -0.064163 0.002207	0.183718
0.048753 -0.001000 -0.064498 0.002299	0.182402
0.052738 -0.001000 -0.064834 0.002079	0.182232
0.054116 -0.001000 -0.064951 0.001980	0.182162
0.054375 -0.001000 -0.064972 0.001974	0.182142
0.060199 -0.001000 -0.065447 0.001978	0.180280
0.061072 -0.001000 -0.065518 0.001977	0.180014
0.061175 -0.001000 -0.065526 0.001976	0.179997
0.061656 -0.001000 -0.065564 0.001955	0.179935
0.068506 -0.001000 -0.066100 0.001627	0.179287
0.069193 -0.001000 -0.066152 0.001613	0.179159
0.074083 -0.001000 -0.066517 0.001644	0.180275
0.077096 -0.001000 -0.066742 0.001671	0.180713
0.078912 -0.001000 -0.066872 0.001701	0.180435
0.085529 -0.001000 -0.067344 0.001886	0.178443
0.088014 -0.001000 -0.067515 0.001843	0.178285
0.095098 -0.001000 -0.067995 0.001868	0.177610
0.096235 -0.001000 -0.068070 0.001887	0.177384
0.100907 -0.001000 -0.068372 0.001887	0.176545
0.103865 -0.001000 -0.068564 0.001863	0.176008
0.105814 -0.001000 -0.068685 0.001900	0.176243
0.110511 -0.001000 -0.068976 0.001919	0.176879
0.111571 -0.001000 -0.069041 0.001943	0.176980
0.112526 -0.001000 -0.069098 0.001913	0.176991
0.118850 -0.001000 -0.069473 0.001829	0.176871
0.119042 -0.001000 -0.069485 0.001825	0.176863
0.119897 -0.001000 -0.069533 0.001822	0.176705
0.126934 -0.001000 -0.069933 0.001774	0.175477
0.130298 -0.001000 -0.070115 0.001772	0.175167
0.134952 -0.001000 -0.070367 0.001730	0.174795
0.140038 -0.001000 -0.070631 0.001662	0.175353
0.145516 -0.001000 -0.070906 0.001682	0.175246
0.147564 -0.001000 -0.071008 0.001622	0.175084
0.153655 -0.001000 -0.071297 0.001578	0.175511
0.155774 -0.001000 -0.071398 0.001546	0.175632
0.156113 -0.001000 -0.071414 0.001542	0.175690
0.159034 -0.001000 -0.071545 0.001475	0.176205
0.164997 -0.001000 -0.071812 0.001357	0.177081
0.167425 -0.001000 -0.071915 0.001397	0.176992
0.174080 -0.001000 -0.072195 0.001678	0.175604
0.179869 -0.001000 -0.072424 0.001653	0.176162
0.182683 -0.001000 -0.072535 0.001629	0.176245
0.189338 -0.001000 -0.072784 0.001664	0.177815
0.190572 -0.001000 -0.072830 0.001662	0.178070
0.190734 -0.001000 -0.072836 0.001660	0.178075
0.191926 -0.001000 -0.072878 0.001670	0.178012
0.198943 -0.001000 -0.073125 0.001683	0.177354
0.202441 -0.001000 -0.073241 0.001683	0.178017
0.207553 -0.001000 -0.073410 0.001644	0.178892
0.210016 -0.001000 -0.073487 0.001634	0.179097
0.217422 -0.001000 -0.073714 0.001554	0.180571
0.220616 -0.001000 -0.073808 0.001478	0.181086
0.229771 -0.001000 -0.074065 0.001444	0.182028
0.232953 -0.001000 -0.074151 0.001462	0.182663
0.245049 -0.001000 -0.074458 0.001500	0.185798
0.245489 -0.001000 -0.074468 0.001493	0.185916
0.246480 -0.001000 -0.074491 0.001469	0.186180
0.256856 -0.001000 -0.074730 0.001252	0.188742
0.266384 -0.001000 -0.074923 0.001265	0.189414
0.268202 -0.001000 -0.074960 0.001288	0.189516
0.268892 -0.001000 -0.074972 0.001294	0.189515
0.278486 -0.001000 -0.075140 0.001409	0.189180
0.281580 -0.001000 -0.075189 0.001482	0.189419
0.287241 -0.001000 -0.075275 0.001614	0.190313
0.291749 -0.001000 -0.075338 0.001582	0.190834
0.295279 -0.001000 -0.075385 0.001521	0.191448
0.299981 -0.001000 -0.075443 0.001479	0.192037
0.307713 -0.001000 -0.075528 0.001540	0.193414
0.310559 -0.001000 -0.075558 0.001526	0.194234
0.311831 -0.001000 -0.075570 0.001519	0.194437
0.323655 -0.001000 -0.075672 0.001433	0.197289
0.323808 -0.001000 -0.075673 0.001433	0.197336
0.324072 -0.001000 -0.075675 0.001426	0.197435
0.335290 -0.001000 -0.075750 0.001115	0.201741
0.339967 -0.001000 -0.075773 0.001189	0.202890
0.348315 -0.001000 -0.075814 0.001260	0.205018
0.357740 -0.001000 -0.075841 0.001265	0.208550
0.362300 -0.001000 -0.075853 0.001240	0.210126
0.368443 -0.001000 -0.075855 0.001289	0.211718
0.375748 -0.001000 -0.075859 0.001275	0.213869
0.380481 -0.001000 -0.075851 0.001286	0.215040
0.388568 -0.001000 -0.075833 0.001278	0.217189
0.396083 -0.001000 -0.075805 0.001295	0.218969
0.403564 -0.001000 -0.075769 0.001277	0.221047
0.411340 -0.001000 -0.075722 0.001270	0.223124
0.418404 -0.001000 -0.075671 0.001259	0.225353
0.424056 -0.001000 -0.075627 0.001221	0.227012
0.436514 -0.001000 -0.075510 0.001157	0.231016
0.436794 -0.001000 -0.075507 0.001156	0.231115
0.437051 -0.001000 -0.075504 0.001154	0.231204
0.450593 -0.001000 -0.075353 0.001091	0.236672
0.454583 -0.001000 -0.075303 0.001107	0.238384
0.464563 -0.001000 -0.075171 0.001060	0.241681
0.470382 -0.001000 -0.075086 0.001057	0.243644
0.477953 -0.001000 -0.074969 0.001183	0.246355
0.487887 -0.001000 -0.074803 0.001181	0.249936
0.489118 -0.001000 -0.074781 0.001160	0.250396
0.494610 -0.001000 -0.074679 0.001153	0.252372
0.500554 -0.001000 -0.074569 0.001123	0.254501
0.501007 -0.001000 -0.074561 0.001124	0.254652
0.502947 -0.001000 -0.074521 0.001144	0.255357
0.512596 -0.001000 -0.074326 0.001181	0.258659
0.519591 -0.001000 -0.074173 0.001148	0.261604
0.524514 -0.001000 -0.074065 0.001085	0.263581
0.527016 -0.001000 -0.074007 0.001067	0.264765
0.538993 -0.001000 -0.073720 0.001008	0.270303
0.541776 -0.001000 -0.073651 0.000995	0.271434
0.546177 -0.001000 -0.073537 0.000994	0.273665
0.556163 -0.001000 -0.073275 0.000948	0.278501
0.565202 -0.001000 -0.073023 0.000876	0.283084
0.572126 -0.001000 -0.072825 0.000854	0.286501
0.581297 -0.001000 -0.072551 0.000861	0.291335
0.591168 -0.001000 -0.072242 0.000925	0.296388
0.596692 -0.001000 -0.072065 0.000912	0.299032
0.611076 -0.001000 -0.071578 0.000780	0.306687
0.612433 -0.001000 -0.071532 0.000763	0.307385
0.613445 -0.001000 -0.071495 0.000764	0.307941
0.627801 -0.001000 -0.070973 0.000728	0.315657
0.633309 -0.001000 -0.070764 0.000722	0.318929
0.639221 -0.001000 -0.070534 0.000684	0.322520
0.644829 -0.001000 -0.070311 0.000696	0.325476
0.649570 -0.001000 -0.070117 0.000686	0.328477
0.652973 -0.001000 -0.069975 0.000652	0.330607
0.657339 -0.001000 -0.069790 0.000660	0.333910
0.662321 -0.001000 -0.069579 0.000654	0.337703
0.667965 -0.001000 -0.069332 0.000626	0.342292
0.675697 -0.001000 -0.068988 0.000565	0.348677
0.681193 -0.001000 -0.068738 0.000516	0.353430
0.691159 -0.001000 -0.068271 0.000447	0.361865
0.695367 -0.001000 -0.068070 0.000404	0.365558
0.708825 -0.001000 -0.067407 0.000380	0.378097
0.710104 -0.001000 -0.067343 0.000374	0.379279
0.711164 -0.001000 -0.067289 0.000370	0.380427
0.722351 -0.001000 -0.066713 0.000287	0.392996
0.724658 -0.001000 -0.066592 0.000256	0.395877
0.733151 -0.001000 -0.066139 0.000171	0.406813
0.733450 -0.001000 -0.066122 0.000168	0.407217
0.733667 -0.001000 -0.066111 0.000167	0.407489
0.739279 -0.001000 -0.065804 0.000119	0.414807
0.739591 -0.001000 -0.065787 0.000117	0.415291
0.742794 -0.001000 -0.065610 0.000112	0.420669
0.742907 -0.001000 -0.065604 0.000112	0.420840
0.743247 -0.001000 -0.065585 0.000110	0.421273
0.744830 -0.001000 -0.065497 0.000094	0.423182
0.745382 -0.001000 -0.065466 0.000101	0.424257
0.746107 -0.001000 -0.065425 0.000088	0.425179
0.746332 -0.001000 -0.065413 0.000091	0.424996
0.746647 -0.001000 -0.065395 0.000115	0.425211
0.746724 -0.001000 -0.065391 0.000117	0.425769
0.746880 -0.001000 -0.065382 0.000114	0.427527
0.746927 -0.001000 -0.065379 0.000114	0.427900
0.747028 -0.001000 -0.065373 0.000114	0.429399
0.747095 -0.001000 -0.065370 0.000071	0.427478
0.747146 -0.001000 -0.065367 0.000012	0.425556
0.747084 -0.001000 -0.065352 0.000023	0.427673
0.747038 -0.001000 -0.065342 0.000027	0.428665
0.746961 -0.001000 -0.065323 0.000017	0.426836
0.746844 -0.001000 -0.065296 0.000013	0.426916
0.746777 -0.001000 -0.065280 0.000011	0.427207
0.746655 -0.001000 -0.065252 0.000009	0.426820
0.746451 -0.001000 -0.065204 -0.000001	0.426480
0.746128 -0.001000 -0.065128 -0.000014	0.426098
0.745768 -0.001000 -0.065043 -0.000035	0.425624
0.745247 -0.001000 -0.064921 -0.000056	0.425220
0.744116 -0.001000 -0.064656 -0.000092	0.424031
0.743555 -0.001000 -0.064524 -0.000104	0.423460
0.742392 -0.001000 -0.064252 -0.000115	0.422186
0.740361 -0.001000 -0.063777 -0.000141	0.419946
0.735203 -0.001000 -0.062573 -0.000160	0.414348
0.735075 -0.001000 -0.062544 -0.000161	0.414210
0.734896 -0.001000 -0.062502 -0.000161	0.414031
0.726523 -0.001000 -0.060558 -0.000170	0.405629
0.717630 -0.001000 -0.058508 -0.000175	0.396962
0.714178 -0.001000 -0.057714 -0.000170	0.393656
0.703455 -0.001000 -0.055264 -0.000149	0.383279
0.702302 -0.001000 -0.055001 -0.000144	0.382159
0.693406 -0.001000 -0.052986 -0.000115	0.373263
0.691892 -0.001000 -0.052643 -0.000110	0.371749
0.691636 -0.001000 -0.052586 -0.000109	0.371493
0.686354 -0.001000 -0.051399 -0.000092	0.366242
0.680995 -0.001000 -0.050194 -0.000074	0.360915