TITLE     = "Surface mesh and solution"
VARIABLES = "x"
"y"
"z"
"cfx"
"Cp"
DATASETAUXDATA alpha_deg="  0.0000000E+00"
DATASETAUXDATA beta_deg="  0.0000000E+00"
DATASETAUXDATA bref="  0.7500000"
DATASETAUXDATA cref="   1.000000"
DATASETAUXDATA itranflg="           0"
DATASETAUXDATA ivisc="           2"
DATASETAUXDATA mach="  0.2000000"
DATASETAUXDATA reue_mil="   4.600000"
DATASETAUXDATA sref="  0.7500000"
DATASETAUXDATA tinf_r="   521.0000"
DATASETAUXDATA xmc="  0.0000000E+00"
DATASETAUXDATA ymc="  0.0000000E+00"
DATASETAUXDATA zmc="  0.0000000E+00"
ZONE T="Slice: Y=-0.73"
STRANDID=0, SOLUTIONTIME=0
Nodes=2468, Elements=2468, ZONETYPE=FELineSeg
DATAPACKING=POINT
DT=(DOUBLE DOUBLE DOUBLE DOUBLE DOUBLE )
0.676736 -0.730000 -0.068954 0.002142	0.238712
0.678031 -0.730000 -0.068896 0.002129	0.239852
0.680495 -0.730000 -0.068784 0.002120	0.241672
0.683729 -0.730000 -0.068635 0.002086	0.244370
0.684403 -0.730000 -0.068604 0.002079	0.244881
0.688086 -0.730000 -0.068433 0.002065	0.248024
0.688378 -0.730000 -0.068419 0.002061	0.248251
0.688891 -0.730000 -0.068395 0.002052	0.248715
0.692037 -0.730000 -0.068246 0.002008	0.251073
0.695387 -0.730000 -0.068086 0.002002	0.254036
0.695779 -0.730000 -0.068067 0.002004	0.254365
0.698753 -0.730000 -0.067923 0.002005	0.257159
0.699382 -0.730000 -0.067892 0.001997	0.257693
0.700153 -0.730000 -0.067855 0.001999	0.258491
0.703627 -0.730000 -0.067684 0.001989	0.261720
0.705296 -0.730000 -0.067601 0.001973	0.263430
0.707390 -0.730000 -0.067497 0.001951	0.265159
0.709776 -0.730000 -0.067376 0.001939	0.267483
0.711248 -0.730000 -0.067302 0.001929	0.268754
0.712837 -0.730000 -0.067221 0.001927	0.270293
0.714926 -0.730000 -0.067114 0.001921	0.271941
0.716190 -0.730000 -0.067049 0.001915	0.272954
0.718882 -0.730000 -0.066909 0.001902	0.274869
0.720430 -0.730000 -0.066829 0.001901	0.275844
0.723576 -0.730000 -0.066663 0.001924	0.277778
0.724395 -0.730000 -0.066620 0.001923	0.278169
0.727920 -0.730000 -0.066432 0.001883	0.279348
0.727924 -0.730000 -0.066431 0.001883	0.279349
0.727925 -0.730000 -0.066431 0.001883	0.279349
0.727928 -0.730000 -0.066431 0.001883	0.279351
0.730951 -0.730000 -0.066268 0.001852	0.280334
0.732251 -0.730000 -0.066197 0.001863	0.280389
0.733659 -0.730000 -0.066120 0.001876	0.280220
0.735759 -0.730000 -0.066006 0.001881	0.278908
0.736526 -0.730000 -0.065963 0.001890	0.278376
0.737005 -0.730000 -0.065937 0.001903	0.277809
0.738122 -0.730000 -0.065875 0.001908	0.276572
0.739274 -0.730000 -0.065811 0.001922	0.275540
0.740550 -0.730000 -0.065739 0.001933	0.273600
0.741877 -0.730000 -0.065665 0.001948	0.271774
0.742687 -0.730000 -0.065620 0.001979	0.269564
0.744044 -0.730000 -0.065543 0.002016	0.266878
0.744338 -0.730000 -0.065527 0.002033	0.266043
0.745570 -0.730000 -0.065457 0.002053	0.262182
0.745718 -0.730000 -0.065448 0.002052	0.261539
0.746455 -0.730000 -0.065406 0.002139	0.257004
0.746475 -0.730000 -0.065405 0.002147	0.257036
0.746571 -0.730000 -0.065400 0.002205	0.255902
0.746845 -0.730000 -0.065384 0.002362	0.254128
0.746870 -0.730000 -0.065383 0.002370	0.254357
0.747018 -0.730000 -0.065374 0.002696	0.261451
0.747035 -0.730000 -0.065373 0.002743	0.262466
0.747101 -0.730000 -0.065369 0.003095	0.262562
0.747101 -0.730000 -0.065369 0.003098	0.262524
0.747102 -0.730000 -0.065369 0.003114	0.262105
0.747130 -0.730000 -0.065368 0.003590	0.251146
0.747134 -0.730000 -0.065368 0.003768	0.255393
0.747139 -0.730000 -0.065367 0.002547	0.237893
0.747146 -0.730000 -0.065367 0.000746	0.230209
0.747142 -0.730000 -0.065366 0.000554	0.235776
0.747138 -0.730000 -0.065365 0.000810	0.242077
0.747132 -0.730000 -0.065363 0.000792	0.239841
0.747124 -0.730000 -0.065362 0.000738	0.239909
0.747098 -0.730000 -0.065355 0.000602	0.243504
0.747086 -0.730000 -0.065353 0.000579	0.243182
0.747036 -0.730000 -0.065341 0.000501	0.241722
0.747016 -0.730000 -0.065336 0.000474	0.240878
0.746879 -0.730000 -0.065304 0.000409	0.238251
0.746854 -0.730000 -0.065298 0.000400	0.237862
0.746610 -0.730000 -0.065240 0.000331	0.233525
0.746488 -0.730000 -0.065212 0.000337	0.230999
0.746265 -0.730000 -0.065159 0.000340	0.227053
0.745843 -0.730000 -0.065060 0.000448	0.218940
0.745584 -0.730000 -0.064999 0.000513	0.214156
0.744596 -0.730000 -0.064766 0.000736	0.195463
0.744510 -0.730000 -0.064746 0.000754	0.193952
0.744475 -0.730000 -0.064738 0.000761	0.193406
0.743419 -0.730000 -0.064489 0.001013	0.176061
0.743098 -0.730000 -0.064414 0.001072	0.171329
0.742321 -0.730000 -0.064231 0.001255	0.159326
0.741983 -0.730000 -0.064152 0.001309	0.154769
0.740949 -0.730000 -0.063909 0.001477	0.140740
0.740789 -0.730000 -0.063872 0.001502	0.138983
0.740286 -0.730000 -0.063754 0.001565	0.133345
0.739641 -0.730000 -0.063602 0.001648	0.126303
0.739377 -0.730000 -0.063541 0.001680	0.123281
0.738649 -0.730000 -0.063370 0.001760	0.116900
0.737869 -0.730000 -0.063187 0.001835	0.109349
0.737267 -0.730000 -0.063047 0.001888	0.103875
0.735785 -0.730000 -0.062700 0.001993	0.092313
0.735571 -0.730000 -0.062650 0.002008	0.090775
0.735339 -0.730000 -0.062596 0.002028	0.088751
0.733519 -0.730000 -0.062172 0.002163	0.075760
0.733285 -0.730000 -0.062117 0.002176	0.074200
0.732887 -0.730000 -0.062024 0.002199	0.071543
0.731753 -0.730000 -0.061760 0.002259	0.065020
0.731082 -0.730000 -0.061604 0.002290	0.061164
0.730295 -0.730000 -0.061421 0.002333	0.056526
0.728552 -0.730000 -0.061016 0.002402	0.046890
0.728424 -0.730000 -0.060986 0.002408	0.046221
0.728349 -0.730000 -0.060968 0.002410	0.045825
0.726348 -0.730000 -0.060504 0.002490	0.036587
0.725746 -0.730000 -0.060364 0.002512	0.033824
0.723993 -0.730000 -0.059959 0.002570	0.026559
0.723634 -0.730000 -0.059876 0.002581	0.025209
0.722104 -0.730000 -0.059522 0.002615	0.019717
0.720831 -0.730000 -0.059228 0.002666	0.015586
0.720150 -0.730000 -0.059071 0.002683	0.013401
0.718352 -0.730000 -0.058657 0.002747	0.007933
0.718049 -0.730000 -0.058587 0.002756	0.007032
0.717426 -0.730000 -0.058443 0.002774	0.005301
0.715837 -0.730000 -0.058078 0.002815	0.001002
0.715669 -0.730000 -0.058040 0.002820	0.000563
0.715329 -0.730000 -0.057961 0.002830	-0.000341
0.712863 -0.730000 -0.057396 0.002893	-0.006312
0.711657 -0.730000 -0.057119 0.002907	-0.008714
0.710093 -0.730000 -0.056761 0.002934	-0.012181
0.709343 -0.730000 -0.056590 0.002945	-0.013503
0.707691 -0.730000 -0.056212 0.002972	-0.015882
0.706491 -0.730000 -0.055938 0.003004	-0.017562
0.705019 -0.730000 -0.055603 0.003049	-0.019522
0.704222 -0.730000 -0.055421 0.003066	-0.020322
0.703384 -0.730000 -0.055230 0.003072	-0.021127
0.701885 -0.730000 -0.054889 0.003070	-0.022286
0.699692 -0.730000 -0.054391 0.003076	-0.024367
0.699649 -0.730000 -0.054382 0.003076	-0.024390
0.698034 -0.730000 -0.054016 0.003066	-0.025150
0.696974 -0.730000 -0.053776 0.003085	-0.025602
0.694906 -0.730000 -0.053308 0.003101	-0.026150
0.694149 -0.730000 -0.053137 0.003103	-0.026308
0.693948 -0.730000 -0.053091 0.003104	-0.026334
0.691538 -0.730000 -0.052548 0.003120	-0.026637
0.691437 -0.730000 -0.052525 0.003121	-0.026603
0.690856 -0.730000 -0.052394 0.003131	-0.026699
0.689055 -0.730000 -0.051988 0.003167	-0.026668
0.688680 -0.730000 -0.051904 0.003166	-0.026748
0.686032 -0.730000 -0.051309 0.003153	-0.026440
0.685772 -0.730000 -0.051250 0.003146	-0.026324
0.685411 -0.730000 -0.051170 0.003149	-0.026304
0.683480 -0.730000 -0.050737 0.003167	-0.025224
0.681650 -0.730000 -0.050327 0.003172	-0.024798
0.681039 -0.730000 -0.050190 0.003175	-0.024640
0.678962 -0.730000 -0.049726 0.003147	-0.023634
0.677875 -0.730000 -0.049484 0.003138	-0.023257
0.676303 -0.730000 -0.049134 0.003148	-0.021832
0.674838 -0.730000 -0.048807 0.003167	-0.021058
0.673419 -0.730000 -0.048492 0.003187	-0.021104
0.672449 -0.730000 -0.048276 0.003186	-0.020476
0.671312 -0.730000 -0.048024 0.003182	-0.018951
0.670591 -0.730000 -0.047864 0.003179	-0.018339
0.669184 -0.730000 -0.047552 0.003166	-0.017584
0.668643 -0.730000 -0.047432 0.003156	-0.017164
0.667052 -0.730000 -0.047080 0.003124	-0.015566
0.666221 -0.730000 -0.046896 0.003118	-0.014773
0.664913 -0.730000 -0.046607 0.003140	-0.013776
0.664281 -0.730000 -0.046468 0.003149	-0.013145
0.663939 -0.730000 -0.046392 0.003155	-0.013004
0.662517 -0.730000 -0.046078 0.003157	-0.011824
0.661355 -0.730000 -0.045823 0.003157	-0.010881
0.660288 -0.730000 -0.045588 0.003137	-0.009513
0.658518 -0.730000 -0.045198 0.003109	-0.007860
0.657840 -0.730000 -0.045049 0.003110	-0.007186
0.655886 -0.730000 -0.044620 0.003121	-0.005521
0.655572 -0.730000 -0.044551 0.003120	-0.005071
0.655092 -0.730000 -0.044446 0.003125	-0.004811
0.653862 -0.730000 -0.044177 0.003134	-0.003268
0.652929 -0.730000 -0.043973 0.003099	-0.002464
0.652740 -0.730000 -0.043931 0.003096	-0.002280
0.651669 -0.730000 -0.043698 0.003087	-0.001437
0.651166 -0.730000 -0.043588 0.003082	-0.000886
0.651115 -0.730000 -0.043576 0.003081	-0.000752
0.651070 -0.730000 -0.043567 0.003081	-0.000769
0.650602 -0.730000 -0.043464 0.003076	-0.000325
0.648613 -0.730000 -0.043030 0.003050	0.002212
0.647979 -0.730000 -0.042892 0.003048	0.002601
0.646053 -0.730000 -0.042473 0.003040	0.004443
0.644742 -0.730000 -0.042187 0.003056	0.005261
0.643578 -0.730000 -0.041934 0.003055	0.006525
0.641480 -0.730000 -0.041479 0.003032	0.008685
0.641117 -0.730000 -0.041400 0.003026	0.009831
0.640819 -0.730000 -0.041335 0.003027	0.009611
0.638668 -0.730000 -0.040869 0.003008	0.012283
0.638462 -0.730000 -0.040824 0.003006	0.012755
0.636275 -0.730000 -0.040351 0.002995	0.014785
0.636222 -0.730000 -0.040340 0.002994	0.014873
0.636163 -0.730000 -0.040327 0.002993	0.014899
0.633845 -0.730000 -0.039826 0.002948	0.018350
0.633423 -0.730000 -0.039736 0.002945	0.019027
0.631576 -0.730000 -0.039337 0.002934	0.021180
0.631233 -0.730000 -0.039264 0.002929	0.021700
0.629088 -0.730000 -0.038802 0.002938	0.024281
0.628910 -0.730000 -0.038764 0.002939	0.024518
0.627781 -0.730000 -0.038522 0.002935	0.025858
0.626492 -0.730000 -0.038245 0.002927	0.027804
0.626103 -0.730000 -0.038162 0.002924	0.028190
0.624036 -0.730000 -0.037719 0.002914	0.030852
0.623187 -0.730000 -0.037537 0.002909	0.031703
0.621654 -0.730000 -0.037209 0.002896	0.033422
0.619794 -0.730000 -0.036812 0.002877	0.035159
0.619469 -0.730000 -0.036742 0.002874	0.035616
0.619223 -0.730000 -0.036690 0.002873	0.035807
0.617261 -0.730000 -0.036272 0.002878	0.038779
0.615924 -0.730000 -0.035987 0.002874	0.039716
0.615038 -0.730000 -0.035798 0.002866	0.040950
0.613372 -0.730000 -0.035444 0.002846	0.042844
0.612698 -0.730000 -0.035300 0.002836	0.043791
0.611051 -0.730000 -0.034951 0.002820	0.045747
0.610320 -0.730000 -0.034796 0.002820	0.046569
0.608793 -0.730000 -0.034472 0.002810	0.048077
0.607989 -0.730000 -0.034302 0.002802	0.049307
0.607164 -0.730000 -0.034128 0.002805	0.050115
0.605859 -0.730000 -0.033852 0.002791	0.052199
0.604470 -0.730000 -0.033559 0.002745	0.053840
0.603513 -0.730000 -0.033357 0.002752	0.054411
0.602345 -0.730000 -0.033111 0.002755	0.055831
0.600290 -0.730000 -0.032678 0.002741	0.056765
0.600018 -0.730000 -0.032621 0.002737	0.057118
0.599928 -0.730000 -0.032602 0.002736	0.057199
0.597565 -0.730000 -0.032105 0.002682	0.060745
0.597264 -0.730000 -0.032042 0.002678	0.061105
0.595117 -0.730000 -0.031592 0.002657	0.062948
0.595022 -0.730000 -0.031572 0.002656	0.063074
0.594998 -0.730000 -0.031567 0.002656	0.063084
0.594839 -0.730000 -0.031533 0.002658	0.063195
0.592386 -0.730000 -0.031019 0.002680	0.065266
0.592066 -0.730000 -0.030952 0.002678	0.065694
0.590659 -0.730000 -0.030658 0.002659	0.066921
0.589630 -0.730000 -0.030443 0.002639	0.068263
0.589282 -0.730000 -0.030371 0.002641	0.068490
0.587250 -0.730000 -0.029947 0.002618	0.070464
0.586983 -0.730000 -0.029891 0.002614	0.070730
0.586187 -0.730000 -0.029725 0.002602	0.071397
0.584904 -0.730000 -0.029458 0.002582	0.072891
0.583133 -0.730000 -0.029090 0.002567	0.074784
0.582853 -0.730000 -0.029032 0.002564	0.075150
0.582747 -0.730000 -0.029010 0.002563	0.075281
0.582547 -0.730000 -0.028968 0.002561	0.075444
0.580581 -0.730000 -0.028561 0.002562	0.077938
0.579105 -0.730000 -0.028255 0.002544	0.079184
0.578428 -0.730000 -0.028115 0.002543	0.080163
0.577877 -0.730000 -0.028001 0.002534	0.080354
0.575683 -0.730000 -0.027547 0.002519	0.081999
0.574522 -0.730000 -0.027307 0.002514	0.082750
0.572757 -0.730000 -0.026943 0.002510	0.084490
0.571077 -0.730000 -0.026597 0.002510	0.084620
0.570154 -0.730000 -0.026407 0.002501	0.085532
0.568089 -0.730000 -0.025982 0.002502	0.087400
0.567531 -0.730000 -0.025867 0.002498	0.087859
0.565667 -0.730000 -0.025484 0.002470	0.090219
0.564901 -0.730000 -0.025327 0.002465	0.090694
0.563242 -0.730000 -0.024987 0.002432	0.091781
0.562903 -0.730000 -0.024917 0.002431	0.092167
0.561538 -0.730000 -0.024638 0.002435	0.093513
0.560886 -0.730000 -0.024505 0.002434	0.094458
0.559957 -0.730000 -0.024315 0.002415	0.094386
0.559684 -0.730000 -0.024259 0.002407	0.094670
0.559331 -0.730000 -0.024187 0.002404	0.094664
0.558365 -0.730000 -0.023990 0.002396	0.095399
0.557453 -0.730000 -0.023804 0.002389	0.096933
0.555685 -0.730000 -0.023444 0.002390	0.097426
0.554986 -0.730000 -0.023301 0.002393	0.097852
0.553325 -0.730000 -0.022964 0.002370	0.100571
0.552014 -0.730000 -0.022697 0.002352	0.103291
0.551602 -0.730000 -0.022614 0.002349	0.102868
0.549150 -0.730000 -0.022117 0.002316	0.102992
0.548559 -0.730000 -0.021997 0.002308	0.102901
0.548373 -0.730000 -0.021959 0.002307	0.103046
0.545762 -0.730000 -0.021431 0.002312	0.105677
0.543248 -0.730000 -0.020923 0.002305	0.105764
0.543226 -0.730000 -0.020918 0.002305	0.105768
0.543077 -0.730000 -0.020888 0.002303	0.105858
0.540453 -0.730000 -0.020359 0.002273	0.107588
0.540124 -0.730000 -0.020293 0.002270	0.107823
0.539299 -0.730000 -0.020127 0.002271	0.108298
0.537527 -0.730000 -0.019770 0.002263	0.109805
0.536056 -0.730000 -0.019475 0.002253	0.110374
0.535125 -0.730000 -0.019288 0.002245	0.110985
0.532344 -0.730000 -0.018731 0.002264	0.112622
0.531983 -0.730000 -0.018659 0.002257	0.112703
0.529772 -0.730000 -0.018216 0.002219	0.114488
0.528453 -0.730000 -0.017953 0.002218	0.114570
0.526755 -0.730000 -0.017614 0.002215	0.115825
0.525510 -0.730000 -0.017366 0.002218	0.116398
0.524069 -0.730000 -0.017079 0.002195	0.116357
0.522106 -0.730000 -0.016689 0.002210	0.116869
0.521456 -0.730000 -0.016559 0.002213	0.117128
0.519756 -0.730000 -0.016222 0.002188	0.118022
0.517503 -0.730000 -0.015775 0.002154	0.118780
0.517207 -0.730000 -0.015717 0.002150	0.118926
0.516738 -0.730000 -0.015624 0.002148	0.119107
0.514506 -0.730000 -0.015182 0.002136	0.120243
0.513264 -0.730000 -0.014937 0.002134	0.120689
0.511944 -0.730000 -0.014677 0.002128	0.121347
0.509891 -0.730000 -0.014272 0.002134	0.121405
0.509787 -0.730000 -0.014252 0.002134	0.121428
0.507519 -0.730000 -0.013806 0.002132	0.122495
0.507338 -0.730000 -0.013770 0.002132	0.122556
0.506357 -0.730000 -0.013578 0.002124	0.122811
0.504752 -0.730000 -0.013263 0.002107	0.123397
0.504330 -0.730000 -0.013180 0.002105	0.123507
0.502883 -0.730000 -0.012897 0.002092	0.123847
0.501594 -0.730000 -0.012644 0.002078	0.124238
0.499437 -0.730000 -0.012223 0.002062	0.125222
0.498811 -0.730000 -0.012101 0.002056	0.125518
0.498722 -0.730000 -0.012083 0.002056	0.125559
0.498603 -0.730000 -0.012060 0.002055	0.125575
0.495734 -0.730000 -0.011501 0.002066	0.126096
0.495286 -0.730000 -0.011414 0.002067	0.126238
0.493680 -0.730000 -0.011101 0.002050	0.126600
0.492333 -0.730000 -0.010840 0.002044	0.126945
0.490646 -0.730000 -0.010512 0.002035	0.127273
0.488446 -0.730000 -0.010085 0.002026	0.128828
0.487926 -0.730000 -0.009984 0.002026	0.129226
0.487066 -0.730000 -0.009818 0.002016	0.128998
0.484995 -0.730000 -0.009417 0.002009	0.128405
0.483028 -0.730000 -0.009038 0.002003	0.128873
0.481953 -0.730000 -0.008830 0.001995	0.129200
0.480999 -0.730000 -0.008646 0.001987	0.129337
0.479009 -0.730000 -0.008263 0.001998	0.129817
0.477316 -0.730000 -0.007938 0.001987	0.130081
0.475121 -0.730000 -0.007517 0.001977	0.130385
0.472422 -0.730000 -0.007000 0.001959	0.130886
0.471725 -0.730000 -0.006867 0.001950	0.131079
0.471185 -0.730000 -0.006764 0.001949	0.131159
0.468512 -0.730000 -0.006253 0.001933	0.131801
0.466887 -0.730000 -0.005943 0.001914	0.131976
0.465966 -0.730000 -0.005768 0.001909	0.132195
0.463395 -0.730000 -0.005279 0.001931	0.132584
0.460154 -0.730000 -0.004664 0.001898	0.133469
0.460089 -0.730000 -0.004652 0.001898	0.133479
0.460016 -0.730000 -0.004638 0.001897	0.133487
0.456907 -0.730000 -0.004050 0.001878	0.133054
0.454194 -0.730000 -0.003538 0.001885	0.133179
0.454096 -0.730000 -0.003519 0.001884	0.133201
0.453886 -0.730000 -0.003479 0.001886	0.133263
0.451702 -0.730000 -0.003068 0.001894	0.133940
0.450372 -0.730000 -0.002818 0.001897	0.133948
0.448868 -0.730000 -0.002535 0.001898	0.133807
0.446668 -0.730000 -0.002123 0.001899	0.133925
0.445666 -0.730000 -0.001935 0.001898	0.134016
0.444859 -0.730000 -0.001784 0.001896	0.134037
0.442745 -0.730000 -0.001388 0.001889	0.134106
0.441439 -0.730000 -0.001145 0.001896	0.134186
0.439518 -0.730000 -0.000787 0.001880	0.134255
0.438897 -0.730000 -0.000671 0.001870	0.134250
0.438013 -0.730000 -0.000507 0.001862	0.134222
0.436330 -0.730000 -0.000194 0.001845	0.134165
0.435446 -0.730000 -0.000030 0.001841	0.134201
0.433973 -0.730000 0.000243 0.001831	0.134114
0.431730 -0.730000 0.000659 0.001841	0.133938
0.428513 -0.730000 0.001254 0.001846	0.133895
0.427824 -0.730000 0.001381 0.001851	0.133902
0.426853 -0.730000 0.001560 0.001847	0.133914
0.423905 -0.730000 0.002103 0.001838	0.133912
0.422177 -0.730000 0.002420 0.001824	0.133908
0.420775 -0.730000 0.002678 0.001818	0.133905
0.419583 -0.730000 0.002896 0.001821	0.133981
0.417998 -0.730000 0.003186 0.001822	0.134001
0.415789 -0.730000 0.003590 0.001854	0.133832
0.414504 -0.730000 0.003824 0.001853	0.133716
0.412520 -0.730000 0.004186 0.001824	0.133488
0.410278 -0.730000 0.004593 0.001828	0.133261
0.409428 -0.730000 0.004748 0.001834	0.133177
0.406255 -0.730000 0.005323 0.001842	0.132685
0.405911 -0.730000 0.005385 0.001842	0.132629
0.405336 -0.730000 0.005489 0.001839	0.132546
0.402588 -0.730000 0.005986 0.001835	0.132051
0.400762 -0.730000 0.006316 0.001826	0.131768
0.398837 -0.730000 0.006662 0.001830	0.131505
0.396185 -0.730000 0.007139 0.001832	0.131255
0.395081 -0.730000 0.007337 0.001834	0.131099
0.392376 -0.730000 0.007821 0.001834	0.130630
0.390324 -0.730000 0.008188 0.001831	0.130317
0.387655 -0.730000 0.008663 0.001823	0.130033
0.385247 -0.730000 0.009091 0.001831	0.129702
0.383987 -0.730000 0.009314 0.001840	0.129479
0.382496 -0.730000 0.009578 0.001849	0.129117
0.380247 -0.730000 0.009976 0.001861	0.128463
0.377222 -0.730000 0.010510 0.001891	0.127537
0.376236 -0.730000 0.010684 0.001896	0.127243
0.375380 -0.730000 0.010834 0.001891	0.127080
0.373128 -0.730000 0.011230 0.001865	0.126695
0.371148 -0.730000 0.011578 0.001873	0.126404
0.368947 -0.730000 0.011963 0.001892	0.126166
0.365849 -0.730000 0.012504 0.001912	0.125661
0.365002 -0.730000 0.012652 0.001911	0.125483
0.362528 -0.730000 0.013081 0.001916	0.124983
0.360861 -0.730000 0.013371 0.001922	0.124610
0.359049 -0.730000 0.013685 0.001912	0.124195
0.357134 -0.730000 0.014016 0.001905	0.123780
0.356385 -0.730000 0.014145 0.001908	0.123513
0.352441 -0.730000 0.014825 0.001911	0.122325
0.351997 -0.730000 0.014901 0.001910	0.122205
0.351573 -0.730000 0.014974 0.001910	0.122083
0.348037 -0.730000 0.015581 0.001905	0.121118
0.347729 -0.730000 0.015633 0.001906	0.121055
0.344573 -0.730000 0.016173 0.001906	0.120129
0.344407 -0.730000 0.016201 0.001907	0.120091
0.341227 -0.730000 0.016742 0.001943	0.119325
0.339982 -0.730000 0.016953 0.001954	0.118968
0.337915 -0.730000 0.017304 0.001961	0.118367
0.334936 -0.730000 0.017808 0.001938	0.117111
0.334530 -0.730000 0.017877 0.001937	0.116942
0.334212 -0.730000 0.017931 0.001937	0.116865
0.330457 -0.730000 0.018563 0.001942	0.115963
0.329082 -0.730000 0.018793 0.001938	0.115598
0.326668 -0.730000 0.019197 0.001929	0.115080
0.323379 -0.730000 0.019746 0.001922	0.114731
0.322246 -0.730000 0.019935 0.001921	0.114699
0.321697 -0.730000 0.020026 0.001926	0.114502
0.320309 -0.730000 0.020256 0.001936	0.113996
0.318141 -0.730000 0.020616 0.001949	0.113283
0.316629 -0.730000 0.020866 0.001945	0.112635
0.314865 -0.730000 0.021157 0.001939	0.111889
0.313178 -0.730000 0.021435 0.001953	0.111470
0.311665 -0.730000 0.021684 0.001963	0.111031
0.310977 -0.730000 0.021797 0.001962	0.110802
0.308323 -0.730000 0.022232 0.001972	0.109880
0.306336 -0.730000 0.022557 0.001990	0.109296
0.304592 -0.730000 0.022842 0.002012	0.108594
0.301360 -0.730000 0.023368 0.001991	0.107115
0.301141 -0.730000 0.023403 0.001988	0.107022
0.300930 -0.730000 0.023437 0.001987	0.106956
0.297212 -0.730000 0.024039 0.001984	0.105742
0.296493 -0.730000 0.024155 0.001989	0.105499
0.293775 -0.730000 0.024593 0.001982	0.104443
0.292053 -0.730000 0.024869 0.001971	0.103869
0.290127 -0.730000 0.025178 0.001985	0.103264
0.287978 -0.730000 0.025521 0.002000	0.102764
0.287018 -0.730000 0.025674 0.002006	0.102396
0.284465 -0.730000 0.026081 0.002020	0.101542
0.282772 -0.730000 0.026349 0.002018	0.100938
0.280881 -0.730000 0.026649 0.002020	0.100162
0.277963 -0.730000 0.027109 0.002024	0.099288
0.277519 -0.730000 0.027179 0.002027	0.099097
0.276496 -0.730000 0.027339 0.002027	0.098627
0.274355 -0.730000 0.027675 0.002032	0.097508
0.273728 -0.730000 0.027774 0.002031	0.097249
0.270162 -0.730000 0.028330 0.002026	0.095889
0.269698 -0.730000 0.028402 0.002024	0.095676
0.269115 -0.730000 0.028493 0.002025	0.095456
0.266280 -0.730000 0.028933 0.002027	0.094347
0.263460 -0.730000 0.029369 0.002060	0.093237
0.262881 -0.730000 0.029458 0.002064	0.092973
0.262745 -0.730000 0.029479 0.002065	0.092905
0.262342 -0.730000 0.029541 0.002067	0.092750
0.259658 -0.730000 0.029954 0.002069	0.091496
0.257615 -0.730000 0.030267 0.002095	0.090724
0.256219 -0.730000 0.030481 0.002098	0.090210
0.254510 -0.730000 0.030742 0.002091	0.089351
0.252282 -0.730000 0.031080 0.002082	0.088405
0.251231 -0.730000 0.031240 0.002073	0.087972
0.248598 -0.730000 0.031638 0.002074	0.086685
0.247997 -0.730000 0.031728 0.002076	0.086442
0.245314 -0.730000 0.032132 0.002077	0.085686
0.244825 -0.730000 0.032205 0.002081	0.085485
0.242325 -0.730000 0.032580 0.002113	0.084318
0.241858 -0.730000 0.032650 0.002124	0.084106
0.241222 -0.730000 0.032744 0.002115	0.083891
0.239032 -0.730000 0.033071 0.002117	0.083068
0.236699 -0.730000 0.033416 0.002123	0.082366
0.236093 -0.730000 0.033506 0.002119	0.082114
0.235240 -0.730000 0.033632 0.002123	0.081795
0.233111 -0.730000 0.033946 0.002130	0.080626
0.231539 -0.730000 0.034176 0.002114	0.080048
0.230206 -0.730000 0.034372 0.002109	0.079286
0.228686 -0.730000 0.034594 0.002113	0.078516
0.227551 -0.730000 0.034760 0.002121	0.077797
0.225747 -0.730000 0.035022 0.002136	0.076978
0.224822 -0.730000 0.035157 0.002145	0.076449
0.224503 -0.730000 0.035203 0.002148	0.076273
0.222005 -0.730000 0.035565 0.002157	0.075000
0.220922 -0.730000 0.035722 0.002165	0.074313
0.219500 -0.730000 0.035927 0.002168	0.073698
0.218091 -0.730000 0.036130 0.002157	0.073147
0.216519 -0.730000 0.036355 0.002161	0.072579
0.215510 -0.730000 0.036499 0.002163	0.072165
0.214858 -0.730000 0.036593 0.002172	0.071941
0.213058 -0.730000 0.036849 0.002178	0.071507
0.212675 -0.730000 0.036904 0.002177	0.071355
0.212092 -0.730000 0.036986 0.002183	0.071097
0.209855 -0.730000 0.037303 0.002196	0.069968
0.209016 -0.730000 0.037422 0.002204	0.069608
0.207210 -0.730000 0.037676 0.002198	0.068680
0.205624 -0.730000 0.037899 0.002208	0.068254
0.204865 -0.730000 0.038006 0.002220	0.067975
0.203247 -0.730000 0.038232 0.002250	0.067359
0.202393 -0.730000 0.038351 0.002255	0.067043
0.201127 -0.730000 0.038527 0.002229	0.066165
0.200544 -0.730000 0.038608 0.002226	0.065918
0.198828 -0.730000 0.038845 0.002197	0.065036
0.198152 -0.730000 0.038939 0.002193	0.064589
0.196944 -0.730000 0.039105 0.002190	0.064578
0.195971 -0.730000 0.039239 0.002187	0.064174
0.194034 -0.730000 0.039505 0.002207	0.063059
0.191980 -0.730000 0.039786 0.002179	0.062213
0.191303 -0.730000 0.039878 0.002170	0.061735
0.190898 -0.730000 0.039933 0.002169	0.061572
0.188538 -0.730000 0.040255 0.002210	0.060560
0.187430 -0.730000 0.040405 0.002229	0.059945
0.186111 -0.730000 0.040583 0.002242	0.059249
0.185077 -0.730000 0.040723 0.002233	0.058480
0.183383 -0.730000 0.040951 0.002240	0.057541
0.182305 -0.730000 0.041096 0.002251	0.056980
0.180107 -0.730000 0.041389 0.002242	0.055999
0.179151 -0.730000 0.041516 0.002243	0.055583
0.177075 -0.730000 0.041792 0.002252	0.054723
0.176308 -0.730000 0.041893 0.002260	0.054465
0.174410 -0.730000 0.042143 0.002278	0.053722
0.173783 -0.730000 0.042226 0.002278	0.053436
0.171589 -0.730000 0.042513 0.002287	0.052735
0.171556 -0.730000 0.042518 0.002287	0.052718
0.171504 -0.730000 0.042525 0.002287	0.052700
0.169366 -0.730000 0.042803 0.002297	0.051306
0.167842 -0.730000 0.043000 0.002285	0.050724
0.167055 -0.730000 0.043102 0.002275	0.050287
0.165480 -0.730000 0.043305 0.002271	0.049892
0.164498 -0.730000 0.043431 0.002274	0.049412
0.163958 -0.730000 0.043500 0.002274	0.049201
0.161789 -0.730000 0.043778 0.002292	0.047826
0.160337 -0.730000 0.043963 0.002279	0.047024
0.159285 -0.730000 0.044097 0.002278	0.046291
0.158328 -0.730000 0.044217 0.002272	0.045736
0.157190 -0.730000 0.044362 0.002291	0.045043
0.155309 -0.730000 0.044599 0.002304	0.044110
0.154889 -0.730000 0.044651 0.002307	0.043947
0.152769 -0.730000 0.044918 0.002333	0.042615
0.152118 -0.730000 0.044999 0.002337	0.042291
0.150219 -0.730000 0.045236 0.002360	0.041456
0.148759 -0.730000 0.045416 0.002352	0.041029
0.147825 -0.730000 0.045532 0.002349	0.040469
0.146230 -0.730000 0.045728 0.002369	0.040027
0.145412 -0.730000 0.045829 0.002375	0.039590
0.145005 -0.730000 0.045879 0.002376	0.039421
0.143208 -0.730000 0.046099 0.002386	0.038200
0.142127 -0.730000 0.046230 0.002387	0.038189
0.141229 -0.730000 0.046340 0.002411	0.038066
0.140328 -0.730000 0.046448 0.002403	0.037980
0.139000 -0.730000 0.046609 0.002407	0.037650
0.137828 -0.730000 0.046749 0.002400	0.037155
0.136555 -0.730000 0.046902 0.002399	0.036556
0.135008 -0.730000 0.047086 0.002406	0.035785
0.134071 -0.730000 0.047198 0.002403	0.035194
0.133358 -0.730000 0.047282 0.002408	0.034889
0.132401 -0.730000 0.047396 0.002415	0.033998
0.131907 -0.730000 0.047454 0.002407	0.033812
0.130411 -0.730000 0.047630 0.002388	0.033333
0.129893 -0.730000 0.047691 0.002390	0.033005
0.127890 -0.730000 0.047925 0.002405	0.032011
0.127571 -0.730000 0.047962 0.002408	0.031927
0.126609 -0.730000 0.048074 0.002419	0.031372
0.125068 -0.730000 0.048253 0.002431	0.030333
0.124667 -0.730000 0.048299 0.002432	0.030064
0.122763 -0.730000 0.048519 0.002450	0.028773
0.122171 -0.730000 0.048587 0.002453	0.028381
0.120446 -0.730000 0.048784 0.002445	0.027344
0.119965 -0.730000 0.048839 0.002443	0.027162
0.117909 -0.730000 0.049073 0.002447	0.026702
0.117828 -0.730000 0.049082 0.002449	0.026633
0.117474 -0.730000 0.049122 0.002455	0.026445
0.115818 -0.730000 0.049309 0.002480	0.025246
0.115360 -0.730000 0.049361 0.002474	0.025112
0.114044 -0.730000 0.049508 0.002491	0.024407
0.113200 -0.730000 0.049602 0.002503	0.023891
0.112317 -0.730000 0.049701 0.002501	0.023112
0.111101 -0.730000 0.049836 0.002510	0.022719
0.110409 -0.730000 0.049913 0.002515	0.022197
0.109410 -0.730000 0.050022 0.002516	0.021827
0.108526 -0.730000 0.050120 0.002516	0.021244
0.106923 -0.730000 0.050295 0.002508	0.020860
0.106812 -0.730000 0.050307 0.002507	0.020812
0.105106 -0.730000 0.050493 0.002496	0.020231
0.105002 -0.730000 0.050504 0.002496	0.020177
0.104800 -0.730000 0.050526 0.002491	0.020133
0.102779 -0.730000 0.050744 0.002484	0.018851
0.101403 -0.730000 0.050891 0.002475	0.018194
0.100699 -0.730000 0.050967 0.002483	0.017861
0.098903 -0.730000 0.051157 0.002484	0.016736
0.098611 -0.730000 0.051188 0.002488	0.016498
0.098544 -0.730000 0.051195 0.002490	0.016448
0.096602 -0.730000 0.051401 0.002525	0.015168
0.096383 -0.730000 0.051424 0.002532	0.015036
0.094801 -0.730000 0.051590 0.002561	0.014355
0.094393 -0.730000 0.051632 0.002554	0.013870
0.093174 -0.730000 0.051760 0.002570	0.012273
0.091761 -0.730000 0.051906 0.002558	0.011965
0.091235 -0.730000 0.051961 0.002560	0.011873
0.090916 -0.730000 0.051994 0.002561	0.011865
0.089196 -0.730000 0.052170 0.002571	0.011200
0.088587 -0.730000 0.052233 0.002573	0.010891
0.086919 -0.730000 0.052403 0.002555	0.010287
0.086064 -0.730000 0.052489 0.002559	0.010071
0.084763 -0.730000 0.052620 0.002570	0.009621
0.084049 -0.730000 0.052692 0.002586	0.009431
0.082707 -0.730000 0.052826 0.002586	0.008816
0.081982 -0.730000 0.052898 0.002591	0.008560
0.080583 -0.730000 0.053037 0.002575	0.008061
0.080043 -0.730000 0.053090 0.002564	0.007842
0.078433 -0.730000 0.053249 0.002629	0.007512
0.078396 -0.730000 0.053252 0.002629	0.007497
0.078244 -0.730000 0.053267 0.002628	0.007459
0.076708 -0.730000 0.053417 0.002617	0.006728
0.076223 -0.730000 0.053464 0.002624	0.006610
0.074668 -0.730000 0.053614 0.002647	0.005768
0.073735 -0.730000 0.053704 0.002655	0.005269
0.072822 -0.730000 0.053790 0.002642	0.004461
0.071464 -0.730000 0.053920 0.002651	0.004032
0.071130 -0.730000 0.053951 0.002647	0.003712
0.069466 -0.730000 0.054108 0.002665	0.002578
0.068886 -0.730000 0.054163 0.002654	0.002164
0.067025 -0.730000 0.054337 0.002712	0.000119
0.066695 -0.730000 0.054368 0.002714	-0.000206
0.064706 -0.730000 0.054553 0.002725	-0.000915
0.064550 -0.730000 0.054567 0.002723	-0.000992
0.062813 -0.730000 0.054725 0.002682	-0.001760
0.061879 -0.730000 0.054810 0.002689	-0.002374
0.060602 -0.730000 0.054926 0.002693	-0.003275
0.059780 -0.730000 0.055001 0.002696	-0.004195
0.058022 -0.730000 0.055160 0.002778	-0.004425
0.057826 -0.730000 0.055177 0.002775	-0.004514
0.057712 -0.730000 0.055187 0.002776	-0.004539
0.055897 -0.730000 0.055347 0.002762	-0.004602
0.054764 -0.730000 0.055447 0.002766	-0.005047
0.054011 -0.730000 0.055512 0.002749	-0.005649
0.053020 -0.730000 0.055599 0.002787	-0.006179
0.051829 -0.730000 0.055703 0.002779	-0.006854
0.050860 -0.730000 0.055786 0.002796	-0.007344