VARIABLES = Nnode C<sub>D</sub>  CDp  CDv C<sub>L</sub>  Pitch 
ZONE T = "WOLF, adapt drag, SA-QCR2000-R_Crot_1.0"
40253   1.803446e-02 1.478349e-02 3.250972e-03 2.169453e-01 1.113146e-02 
78986   2.008399e-02 1.190873e-02 8.175255e-03 2.221829e-01 1.120735e-02 
159064  2.047269e-02 1.117951e-02 9.293181e-03 2.242986e-01 1.068461e-02 
317184  2.060565e-02 1.086654e-02 9.739110e-03 2.247528e-01 1.056622e-02 
636587  2.092588e-02 1.072155e-02 1.020434e-02 2.243748e-01 1.081961e-02 
1276331 2.103720e-02 1.066149e-02 1.037571e-02 2.246889e-01 1.090882e-02 
2540302 2.108565e-02 1.066475e-02 1.042090e-02 2.248655e-01 1.094039e-02 
