TITLE     = "Surface mesh and solution"
VARIABLES = "x"
"y"
"z"
"cfx"
"Cp"
DATASETAUXDATA alpha_deg="  0.0000000E+00"
DATASETAUXDATA beta_deg="  0.0000000E+00"
DATASETAUXDATA bref="   1.000000"
DATASETAUXDATA cref="   1.000000"
DATASETAUXDATA itranflg="           0"
DATASETAUXDATA ivisc="           2"
DATASETAUXDATA mach="  0.1500000"
DATASETAUXDATA reue_mil="   6.000000"
DATASETAUXDATA sref="   1.000000"
DATASETAUXDATA tinf_r="   520.0000"
DATASETAUXDATA xmc="  0.0000000E+00"
DATASETAUXDATA ymc="  0.0000000E+00"
DATASETAUXDATA zmc="  0.0000000E+00"
ZONE T="Slice: Y=0.5"
 STRANDID=0, SOLUTIONTIME=0
 Nodes=67, Elements=64, ZONETYPE=FELineSeg
 DATAPACKING=POINT
 DT=(DOUBLE DOUBLE DOUBLE DOUBLE DOUBLE )
 1.000000000E+00 5.000000000E-01 0.000000000E+00 2.675573701E-03 9.339112132E-02
 9.997581998E-01 5.000000000E-01 -6.863943636E-07 2.524843236E-03 1.323923622E-01
 9.989091431E-01 5.000000000E-01 -6.574487925E-06 2.279103709E-03 1.322449388E-01
 9.970788101E-01 5.000000000E-01 -2.878490680E-05 2.086617843E-03 1.323738303E-01
 9.936181504E-01 5.000000000E-01 -9.279286612E-05 1.883110936E-03 1.317187100E-01
 9.875713850E-01 5.000000000E-01 -2.514464244E-04 1.733214521E-03 1.306497597E-01
 9.776696371E-01 5.000000000E-01 -6.026061715E-04 1.705775234E-03 1.284886286E-01
 9.623778095E-01 5.000000000E-01 -1.307766633E-03 1.743807387E-03 1.234458745E-01
 2.858479568E-02 5.000000000E-01 -2.911240828E-02 5.304844241E-03 -2.748404177E-01
 1.600477414E-02 5.000000000E-01 -2.219539886E-02 4.723397409E-03 -5.705871758E-02
 8.204609664E-03 5.000000000E-01 -1.607499958E-02 3.865121440E-03 2.440877894E-01
 3.747281902E-03 5.000000000E-01 -1.093476215E-02 2.745426477E-03 5.673196291E-01
 1.454538423E-03 5.000000000E-01 -6.835396733E-03 1.517155760E-03 8.191581631E-01
 4.380744737E-04 5.000000000E-01 -3.756788873E-03 5.793783249E-04 9.519678243E-01
 8.308162877E-05 5.000000000E-01 -1.636889097E-03 1.322309299E-04 9.916220198E-01
 5.050861297E-06 5.000000000E-01 -4.036441744E-04 1.343400587E-05 9.972920898E-01
 0.000000000E+00 5.000000000E-01 0.000000000E+00 4.575186140E-07 9.977637993E-01
 5.050861297E-06 5.000000000E-01 4.036441744E-04 1.343400587E-05 9.972920898E-01
 8.308162877E-05 5.000000000E-01 1.636889097E-03 1.322309299E-04 9.916220198E-01
 4.380744737E-04 5.000000000E-01 3.756788873E-03 5.793783249E-04 9.519678243E-01
 1.454538423E-03 5.000000000E-01 6.835396733E-03 1.517155760E-03 8.191581631E-01
 3.747281902E-03 5.000000000E-01 1.093476215E-02 2.745426477E-03 5.673196291E-01
 8.204609664E-03 5.000000000E-01 1.607499958E-02 3.865121440E-03 2.440877894E-01
 1.600477414E-02 5.000000000E-01 2.219539886E-02 4.723397409E-03 -5.705871758E-02
 2.858479568E-02 5.000000000E-01 2.911240828E-02 5.304844241E-03 -2.748404177E-01
 4.754545847E-02 5.000000000E-01 3.648382108E-02 5.526576572E-03 -4.042335243E-01
 7.448762559E-02 5.000000000E-01 4.379391047E-02 5.409713200E-03 -4.663104403E-01
 1.107916266E-01 5.000000000E-01 5.037638507E-02 5.086053901E-03 -4.820234504E-01
 1.573693299E-01 5.000000000E-01 5.548730644E-02 4.670293869E-03 -4.658075228E-01
 2.144321590E-01 5.000000000E-01 5.842678993E-02 4.231859123E-03 -4.271942220E-01
 2.813229733E-01 5.000000000E-01 5.868872610E-02 3.812104988E-03 -3.728521139E-01
 3.564533778E-01 5.000000000E-01 5.609897197E-02 3.440959082E-03 -3.079592597E-01
 4.373721144E-01 5.000000000E-01 5.089423560E-02 3.134758688E-03 -2.372960289E-01
 5.209684893E-01 5.000000000E-01 4.370416714E-02 2.891939558E-03 -1.661268139E-01
 6.037910383E-01 5.000000000E-01 3.542877763E-02 2.692745738E-03 -9.915452582E-02
 6.824381910E-01 5.000000000E-01 2.704260011E-02 2.474347286E-03 -4.045907898E-02
 7.539572863E-01 5.000000000E-01 1.938796455E-02 2.227354165E-03 7.582353047E-03
 8.161770736E-01 5.000000000E-01 1.302485403E-02 2.052778768E-03 4.641765235E-02
 8.679058866E-01 5.000000000E-01 8.179091629E-03 1.945953978E-03 7.687066750E-02
 9.089578602E-01 5.000000000E-01 4.787562206E-03 1.854910371E-03 9.902449535E-02
 9.400153062E-01 5.000000000E-01 2.602854475E-03 1.791254247E-03 1.140938542E-01
 9.623778095E-01 5.000000000E-01 1.307766633E-03 1.743807387E-03 1.234458745E-01
 9.776696371E-01 5.000000000E-01 6.026061715E-04 1.705775234E-03 1.284886286E-01
 9.875713850E-01 5.000000000E-01 2.514464244E-04 1.733214521E-03 1.306497597E-01
 9.936181504E-01 5.000000000E-01 9.279286612E-05 1.883110936E-03 1.317187100E-01
 9.970788101E-01 5.000000000E-01 2.878490680E-05 2.086617843E-03 1.323738303E-01
 9.989091431E-01 5.000000000E-01 6.574487925E-06 2.279103709E-03 1.322449388E-01
 9.997581998E-01 5.000000000E-01 6.863943636E-07 2.524843236E-03 1.323923622E-01
 1.000000000E+00 5.000000000E-01 0.000000000E+00 2.675573701E-03 9.339112132E-02
 9.623778095E-01 5.000000000E-01 -1.307766633E-03 1.743807387E-03 1.234458745E-01
 9.400153062E-01 5.000000000E-01 -2.602854475E-03 1.791254247E-03 1.140938542E-01
 9.089578602E-01 5.000000000E-01 -4.787562206E-03 1.854910371E-03 9.902449535E-02
 8.679058866E-01 5.000000000E-01 -8.179091629E-03 1.945953978E-03 7.687066750E-02
 8.161770736E-01 5.000000000E-01 -1.302485403E-02 2.052778768E-03 4.641765235E-02
 7.539572863E-01 5.000000000E-01 -1.938796455E-02 2.227354165E-03 7.582353047E-03
 6.824381910E-01 5.000000000E-01 -2.704260011E-02 2.474347286E-03 -4.045907898E-02
 6.037910383E-01 5.000000000E-01 -3.542877763E-02 2.692745738E-03 -9.915452582E-02
 5.209684893E-01 5.000000000E-01 -4.370416714E-02 2.891939558E-03 -1.661268139E-01
 4.373721144E-01 5.000000000E-01 -5.089423560E-02 3.134758688E-03 -2.372960289E-01
 3.564533778E-01 5.000000000E-01 -5.609897197E-02 3.440959082E-03 -3.079592597E-01
 2.813229733E-01 5.000000000E-01 -5.868872610E-02 3.812104988E-03 -3.728521139E-01
 2.144321590E-01 5.000000000E-01 -5.842678993E-02 4.231859123E-03 -4.271942220E-01
 1.573693299E-01 5.000000000E-01 -5.548730644E-02 4.670293869E-03 -4.658075228E-01
 1.107916266E-01 5.000000000E-01 -5.037638507E-02 5.086053901E-03 -4.820234504E-01
 7.448762559E-02 5.000000000E-01 -4.379391047E-02 5.409713200E-03 -4.663104403E-01
 4.754545847E-02 5.000000000E-01 -3.648382108E-02 5.526576572E-03 -4.042335243E-01
 2.858479568E-02 5.000000000E-01 -2.911240828E-02 5.304844241E-03 -2.748404177E-01
 2 1
 3 2
 4 3
 5 4
 6 5
 7 6
 8 7
 10 9
 11 10
 12 11
 13 12
 14 13
 15 14
 16 15
 17 16
 18 17
 19 18
 20 19
 21 20
 22 21
 23 22
 24 23
 25 24
 26 25
 27 26
 28 27
 29 28
 30 29
 31 30
 32 31
 33 32
 34 33
 35 34
 36 35
 37 36
 38 37
 39 38
 40 39
 41 40
 42 41
 43 42
 44 43
 45 44
 46 45
 47 46
 48 47
 49 48
 51 50
 52 51
 53 52
 54 53
 55 54
 56 55
 57 56
 58 57
 59 58
 60 59
 61 60
 62 61
 63 62
 64 63
 65 64
 66 65
 67 66
